/*--------------------------------*- C++ -*----------------------------------*\
| =========                 |                                                 |
| \\      /  F ield         | OpenFOAM: The Open Source CFD Toolbox           |
|  \\    /   O peration     | Version:  v2012                                 |
|   \\  /    A nd           | Website:  www.openfoam.com                      |
|    \\/     M anipulation  |                                                 |
\*---------------------------------------------------------------------------*/
FoamFile
{
    version     2.0;
    format      ascii;
    class       volScalarField;
    location    "0.4";
    object      p;
}
// * * * * * * * * * * * * * * * * * * * * * * * * * * * * * * * * * * * * * //

dimensions      [0 2 -2 0 0 0 0];


internalField   nonuniform List<scalar> 
400
(
0.975002
0.925005
0.875007
0.825008
0.775008
0.725009
0.67501
0.62501
0.575009
0.525008
0.475007
0.425007
0.375006
0.325006
0.275006
0.225005
0.175004
0.125003
0.0750011
0.0250001
0.975002
0.925005
0.875006
0.825007
0.775008
0.725009
0.675009
0.625009
0.575008
0.525007
0.475007
0.425006
0.375006
0.325006
0.275006
0.225005
0.175004
0.125003
0.075001
0.025
0.975002
0.925004
0.875006
0.825007
0.775008
0.725008
0.675009
0.625009
0.575009
0.525008
0.475007
0.425006
0.375006
0.325006
0.275006
0.225005
0.175004
0.125003
0.0750008
0.0249999
0.975002
0.925005
0.875006
0.825007
0.775008
0.725008
0.675009
0.625009
0.575009
0.525008
0.475007
0.425007
0.375007
0.325006
0.275006
0.225005
0.175004
0.125003
0.0750006
0.0249998
0.975002
0.925005
0.875006
0.825007
0.775008
0.725008
0.675009
0.625009
0.575009
0.525008
0.475008
0.425007
0.375007
0.325006
0.275006
0.225005
0.175004
0.125002
0.0750004
0.0249998
0.975002
0.925005
0.875006
0.825007
0.775008
0.725009
0.67501
0.62501
0.57501
0.525009
0.475008
0.425007
0.375007
0.325006
0.275006
0.225005
0.175004
0.125002
0.0750002
0.0249997
0.975002
0.925005
0.875007
0.825008
0.775008
0.725009
0.67501
0.625011
0.57501
0.525009
0.475008
0.425008
0.375007
0.325006
0.275006
0.225005
0.175004
0.125002
0.075
0.0249996
0.975002
0.925006
0.875007
0.825008
0.775009
0.72501
0.675011
0.625011
0.575011
0.52501
0.475009
0.425008
0.375007
0.325006
0.275006
0.225005
0.175003
0.125002
0.0749999
0.0249995
0.975002
0.925006
0.875007
0.825008
0.775009
0.72501
0.675011
0.625012
0.575011
0.52501
0.475009
0.425008
0.375007
0.325007
0.275006
0.225005
0.175003
0.125002
0.0749998
0.0249995
0.975003
0.925006
0.875008
0.825009
0.77501
0.725011
0.675012
0.625012
0.575012
0.525011
0.47501
0.425009
0.375008
0.325007
0.275006
0.225005
0.175004
0.125002
0.0749999
0.0249995
0.975003
0.925007
0.875008
0.825009
0.77501
0.725011
0.675012
0.625012
0.575012
0.525011
0.47501
0.425009
0.375008
0.325007
0.275006
0.225005
0.175004
0.125002
0.075
0.0249995
0.975003
0.925007
0.875008
0.825009
0.77501
0.725011
0.675012
0.625012
0.575012
0.525012
0.47501
0.425009
0.375008
0.325007
0.275006
0.225005
0.175004
0.125002
0.0750003
0.0249996
0.975003
0.925006
0.875008
0.825009
0.77501
0.725011
0.675012
0.625012
0.575012
0.525012
0.475011
0.42501
0.375009
0.325008
0.275007
0.225006
0.175004
0.125003
0.0750006
0.0249998
0.975003
0.925006
0.875008
0.825009
0.77501
0.725011
0.675012
0.625012
0.575012
0.525012
0.475011
0.42501
0.375009
0.325008
0.275007
0.225006
0.175005
0.125003
0.0750008
0.0249998
0.975003
0.925006
0.875007
0.825009
0.77501
0.725011
0.675012
0.625012
0.575012
0.525012
0.475011
0.42501
0.37501
0.325009
0.275008
0.225007
0.175005
0.125003
0.075001
0.025
0.975003
0.925006
0.875007
0.825009
0.77501
0.725011
0.675012
0.625013
0.575013
0.525012
0.475012
0.425011
0.37501
0.325009
0.275008
0.225007
0.175006
0.125004
0.0750014
0.0250001
0.975003
0.925006
0.875007
0.825008
0.77501
0.725011
0.675012
0.625013
0.575013
0.525012
0.475012
0.425011
0.37501
0.32501
0.275009
0.225007
0.175006
0.125004
0.0750016
0.0250002
0.975003
0.925005
0.875007
0.825008
0.77501
0.725011
0.675012
0.625013
0.575013
0.525013
0.475012
0.425012
0.375011
0.32501
0.275009
0.225008
0.175006
0.125004
0.0750018
0.0250004
0.975002
0.925005
0.875007
0.825009
0.77501
0.725012
0.675013
0.625013
0.575013
0.525013
0.475013
0.425012
0.375011
0.32501
0.275009
0.225008
0.175006
0.125004
0.0750017
0.0250003
0.975003
0.925006
0.875008
0.82501
0.775011
0.725012
0.675013
0.625014
0.575014
0.525014
0.475013
0.425012
0.375011
0.32501
0.275009
0.225008
0.175006
0.125004
0.0750017
0.0250003
)
;

boundaryField
{
    movingWall
    {
        type            zeroGradient;
    }
    bottomWall
    {
        type            zeroGradient;
    }
    leftSide
    {
        type            fixedValue;
        value           uniform 1;
    }
    rightSide
    {
        type            fixedValue;
        value           uniform 0;
    }
    frontAndBack
    {
        type            empty;
    }
}


// ************************************************************************* //
