/*--------------------------------*- C++ -*----------------------------------*\
| =========                 |                                                 |
| \\      /  F ield         | OpenFOAM: The Open Source CFD Toolbox           |
|  \\    /   O peration     | Version:  v2012                                 |
|   \\  /    A nd           | Website:  www.openfoam.com                      |
|    \\/     M anipulation  |                                                 |
\*---------------------------------------------------------------------------*/
FoamFile
{
    version     2.0;
    format      ascii;
    class       surfaceScalarField;
    location    "0.4";
    object      phi;
}
// * * * * * * * * * * * * * * * * * * * * * * * * * * * * * * * * * * * * * //

dimensions      [0 3 -1 0 0 0 0];
oriented        oriented;


internalField   nonuniform List<scalar> 
760
(
6.14016e-06
-7.90507e-12
6.14017e-06
-8.53115e-12
6.14018e-06
-8.41111e-12
6.14019e-06
-8.44547e-12
6.1402e-06
-1.00512e-11
6.1402e-06
-9.89195e-12
6.14021e-06
-7.6701e-12
6.14022e-06
-6.50968e-12
6.14023e-06
-5.90659e-12
6.14023e-06
-4.38673e-12
6.14023e-06
-2.84269e-12
6.14023e-06
-2.37462e-12
6.14024e-06
-2.63995e-12
6.14024e-06
-2.49593e-12
6.14024e-06
-1.45325e-12
6.14024e-06
3.3486e-14
6.14024e-06
1.31166e-12
6.14024e-06
2.75623e-12
6.14024e-06
4.97605e-12
5.77866e-12
1.71733e-05
-1.84468e-11
1.71733e-05
-2.16389e-11
1.71733e-05
-2.55089e-11
1.71733e-05
-2.56948e-11
1.71733e-05
-2.34563e-11
1.71733e-05
-2.14534e-11
1.71734e-05
-1.95496e-11
1.71734e-05
-1.76255e-11
1.71734e-05
-1.57714e-11
1.71734e-05
-1.31719e-11
1.71734e-05
-9.48856e-12
1.71734e-05
-5.71327e-12
1.71734e-05
-3.17695e-12
1.71734e-05
-2.23015e-12
1.71734e-05
-1.77335e-12
1.71734e-05
-3.46098e-13
1.71734e-05
2.69922e-12
1.71734e-05
6.81466e-12
1.71734e-05
1.04457e-11
1.06367e-11
2.69645e-05
-2.89926e-11
2.69645e-05
-3.2638e-11
2.69645e-05
-3.4484e-11
2.69645e-05
-3.50183e-11
2.69645e-05
-3.40977e-11
2.69645e-05
-3.19334e-11
2.69645e-05
-2.87448e-11
2.69646e-05
-2.48739e-11
2.69646e-05
-2.10065e-11
2.69646e-05
-1.75795e-11
2.69646e-05
-1.44241e-11
2.69646e-05
-1.11131e-11
2.69646e-05
-7.46069e-12
2.69646e-05
-3.67531e-12
2.69646e-05
9.66252e-14
2.69646e-05
3.97157e-12
2.69646e-05
7.82489e-12
2.69646e-05
1.14276e-11
2.69646e-05
1.39684e-11
1.34886e-11
3.55189e-05
-2.99451e-11
3.55189e-05
-3.46456e-11
3.55189e-05
-3.73735e-11
3.55189e-05
-3.81239e-11
3.55189e-05
-3.80173e-11
3.55189e-05
-3.6866e-11
3.55189e-05
-3.40877e-11
3.55189e-05
-2.98058e-11
3.55189e-05
-2.46427e-11
3.55189e-05
-1.94436e-11
3.55189e-05
-1.48287e-11
3.55189e-05
-1.06596e-11
3.55189e-05
-6.325e-12
3.55189e-05
-1.59949e-12
3.55189e-05
3.10447e-12
3.55189e-05
7.61895e-12
3.55189e-05
1.16854e-11
3.55189e-05
1.478e-11
3.55189e-05
1.6379e-11
1.53874e-11
4.28414e-05
-2.59344e-11
4.28414e-05
-3.02158e-11
4.28414e-05
-3.3746e-11
4.28414e-05
-3.50113e-11
4.28413e-05
-3.46984e-11
4.28413e-05
-3.33848e-11
4.28413e-05
-3.10538e-11
4.28413e-05
-2.77004e-11
4.28413e-05
-2.31869e-11
4.28413e-05
-1.77045e-11
4.28413e-05
-1.20908e-11
4.28413e-05
-7.06823e-12
4.28413e-05
-2.55035e-12
4.28413e-05
1.95688e-12
4.28413e-05
6.40888e-12
4.28413e-05
1.05599e-11
4.28413e-05
1.43035e-11
4.28413e-05
1.68566e-11
4.28413e-05
1.76816e-11
1.64256e-11
4.89362e-05
-1.9663e-11
4.89362e-05
-2.28961e-11
4.89362e-05
-2.55211e-11
4.89362e-05
-2.65883e-11
4.89362e-05
-2.61192e-11
4.89361e-05
-2.43228e-11
4.89361e-05
-2.15546e-11
4.89361e-05
-1.84296e-11
4.89361e-05
-1.4874e-11
4.89361e-05
-1.05457e-11
4.89361e-05
-5.72428e-12
4.89361e-05
-1.16551e-12
4.89361e-05
2.72915e-12
4.89361e-05
6.2669e-12
4.89361e-05
9.84547e-12
4.89361e-05
1.32547e-11
4.89361e-05
1.62983e-11
4.89361e-05
1.81481e-11
4.89361e-05
1.81683e-11
1.67124e-11
5.38072e-05
-1.02703e-11
5.38072e-05
-1.22004e-11
5.38072e-05
-1.27708e-11
5.38072e-05
-1.24093e-11
5.38072e-05
-1.1477e-11
5.38072e-05
-9.77627e-12
5.38071e-05
-7.2617e-12
5.38071e-05
-4.68275e-12
5.38071e-05
-2.23738e-12
5.38071e-05
4.85574e-13
5.38071e-05
3.65828e-12
5.38071e-05
6.96924e-12
5.38071e-05
9.92473e-12
5.38071e-05
1.23026e-11
5.38071e-05
1.44602e-11
5.38071e-05
1.64905e-11
5.38071e-05
1.82377e-11
5.38071e-05
1.90421e-11
5.38071e-05
1.81489e-11
1.64193e-11
5.74576e-05
1.58823e-12
5.74576e-05
1.18328e-12
5.74576e-05
2.86871e-12
5.74576e-05
5.10522e-12
5.74576e-05
6.98524e-12
5.74575e-05
8.64467e-12
5.74575e-05
1.04668e-11
5.74575e-05
1.21188e-11
5.74575e-05
1.3452e-11
5.74575e-05
1.47391e-11
5.74575e-05
1.60984e-11
5.74575e-05
1.74858e-11
5.74575e-05
1.87536e-11
5.74574e-05
1.95775e-11
5.74574e-05
2.00068e-11
5.74574e-05
2.02745e-11
5.74574e-05
2.03065e-11
5.74574e-05
1.97307e-11
5.74574e-05
1.78361e-11
1.57395e-11
5.98899e-05
1.47443e-11
5.98898e-05
1.61371e-11
5.98898e-05
2.00769e-11
5.98898e-05
2.4124e-11
5.98898e-05
2.71913e-11
5.98898e-05
2.92801e-11
5.98897e-05
3.04966e-11
5.98897e-05
3.08228e-11
5.98897e-05
3.05063e-11
5.98897e-05
3.00429e-11
5.98897e-05
2.95243e-11
5.98897e-05
2.88419e-11
5.98897e-05
2.80139e-11
5.98897e-05
2.69413e-11
5.98897e-05
2.55306e-11
5.98896e-05
2.40022e-11
5.98896e-05
2.22912e-11
5.98896e-05
2.02039e-11
5.98896e-05
1.72898e-11
1.48187e-11
6.11056e-05
2.80851e-11
6.11055e-05
3.13626e-11
6.11055e-05
3.73922e-11
6.11055e-05
4.283e-11
6.11055e-05
4.66342e-11
6.11055e-05
4.9123e-11
6.11054e-05
5.00235e-11
6.11054e-05
4.92139e-11
6.11054e-05
4.71401e-11
6.11054e-05
4.46198e-11
6.11054e-05
4.20102e-11
6.11054e-05
3.92445e-11
6.11054e-05
3.63086e-11
6.11054e-05
3.3276e-11
6.11054e-05
3.0072e-11
6.11054e-05
2.68476e-11
6.11054e-05
2.35513e-11
6.11054e-05
2.00298e-11
6.11054e-05
1.61821e-11
1.34963e-11
6.11056e-05
4.03994e-11
6.11056e-05
4.53555e-11
6.11055e-05
5.31695e-11
6.11055e-05
5.96883e-11
6.11055e-05
6.37713e-11
6.11055e-05
6.61796e-11
6.11055e-05
6.66397e-11
6.11055e-05
6.4884e-11
6.11055e-05
6.13419e-11
6.11054e-05
5.6926e-11
6.11054e-05
5.22744e-11
6.11054e-05
4.75301e-11
6.11054e-05
4.26645e-11
6.11054e-05
3.7801e-11
6.11054e-05
3.29713e-11
6.11054e-05
2.82459e-11
6.11054e-05
2.35973e-11
6.11054e-05
1.88633e-11
6.11054e-05
1.42182e-11
1.14804e-11
5.98899e-05
5.05934e-11
5.98899e-05
5.6849e-11
5.98899e-05
6.58431e-11
5.98899e-05
7.29407e-11
5.98899e-05
7.69403e-11
5.98899e-05
7.87953e-11
5.98898e-05
7.85157e-11
5.98898e-05
7.58507e-11
5.98898e-05
7.12057e-11
5.98898e-05
6.53881e-11
5.98898e-05
5.9125e-11
5.98898e-05
5.27989e-11
5.98898e-05
4.64589e-11
5.98898e-05
4.01653e-11
5.98898e-05
3.40369e-11
5.98898e-05
2.81298e-11
5.98898e-05
2.24626e-11
5.98898e-05
1.69109e-11
5.98898e-05
1.17314e-11
8.99159e-12
5.74577e-05
5.767e-11
5.74577e-05
6.48422e-11
5.74577e-05
7.42875e-11
5.74577e-05
8.12123e-11
5.74577e-05
8.46613e-11
5.74577e-05
8.55515e-11
5.74577e-05
8.423e-11
5.74577e-05
8.06027e-11
5.74577e-05
7.51107e-11
5.74577e-05
6.84474e-11
5.74577e-05
6.12058e-11
5.74577e-05
5.38581e-11
5.74577e-05
4.66306e-11
5.74577e-05
3.95613e-11
5.74577e-05
3.27596e-11
5.74577e-05
2.6271e-11
5.74577e-05
2.00986e-11
5.74577e-05
1.4213e-11
5.74577e-05
8.85413e-12
6.21254e-12
5.38073e-05
6.074e-11
5.38073e-05
6.836e-11
5.38073e-05
7.74939e-11
5.38073e-05
8.34552e-11
5.38073e-05
8.58633e-11
5.38073e-05
8.55318e-11
5.38073e-05
8.29967e-11
5.38073e-05
7.84479e-11
5.38073e-05
7.23105e-11
5.38074e-05
6.52224e-11
5.38074e-05
5.76253e-11
5.38074e-05
4.98779e-11
5.38074e-05
4.22773e-11
5.38074e-05
3.49183e-11
5.38074e-05
2.78941e-11
5.38074e-05
2.12902e-11
5.38074e-05
1.5078e-11
5.38074e-05
9.331e-12
5.38074e-05
4.35739e-12
2.32869e-12
4.89363e-05
5.92327e-11
4.89363e-05
6.66008e-11
4.89363e-05
7.45937e-11
4.89363e-05
7.89816e-11
4.89363e-05
8.00904e-11
4.89363e-05
7.8699e-11
4.89364e-05
7.51098e-11
4.89364e-05
6.99e-11
4.89364e-05
6.35529e-11
4.89364e-05
5.65763e-11
4.89364e-05
4.92875e-11
4.89364e-05
4.19195e-11
4.89364e-05
3.47438e-11
4.89364e-05
2.79203e-11
4.89364e-05
2.14777e-11
4.89364e-05
1.54255e-11
4.89364e-05
9.63213e-12
4.89364e-05
4.19635e-12
4.89364e-05
-2.99887e-13
-1.69274e-12
4.28415e-05
5.30414e-11
4.28415e-05
5.92415e-11
4.28415e-05
6.51838e-11
4.28415e-05
6.76642e-11
4.28415e-05
6.74547e-11
4.28415e-05
6.55963e-11
4.28416e-05
6.18399e-11
4.28416e-05
5.67479e-11
4.28416e-05
5.09613e-11
4.28416e-05
4.49367e-11
4.28416e-05
3.88772e-11
4.28416e-05
3.2843e-11
4.28416e-05
2.68881e-11
4.28416e-05
2.11008e-11
4.28417e-05
1.55168e-11
4.28417e-05
1.01632e-11
4.28417e-05
4.97986e-12
4.28417e-05
5.65066e-14
4.28417e-05
-3.84177e-12
-4.61093e-12
3.5519e-05
4.25219e-11
3.5519e-05
4.6579e-11
3.55191e-05
4.96214e-11
3.55191e-05
5.03116e-11
3.55191e-05
4.90575e-11
3.55191e-05
4.6962e-11
3.55191e-05
4.37358e-11
3.55192e-05
3.96396e-11
3.55192e-05
3.5129e-11
3.55192e-05
3.04774e-11
3.55192e-05
2.58202e-11
3.55192e-05
2.12855e-11
3.55192e-05
1.69316e-11
3.55192e-05
1.27306e-11
3.55192e-05
8.59572e-12
3.55192e-05
4.42194e-12
3.55192e-05
2.57566e-13
3.55193e-05
-3.66603e-12
3.55193e-05
-6.45018e-12
-6.63478e-12
2.69646e-05
2.87082e-11
2.69646e-05
2.99935e-11
2.69646e-05
2.96096e-11
2.69646e-05
2.87232e-11
2.69647e-05
2.7485e-11
2.69647e-05
2.60982e-11
2.69647e-05
2.42146e-11
2.69647e-05
2.17745e-11
2.69647e-05
1.90173e-11
2.69648e-05
1.62098e-11
2.69648e-05
1.35154e-11
2.69648e-05
1.09756e-11
2.69648e-05
8.48763e-12
2.69648e-05
5.91091e-12
2.69648e-05
3.29894e-12
2.69648e-05
7.2606e-13
2.69648e-05
-1.835e-12
2.69648e-05
-4.38586e-12
2.69648e-05
-5.75102e-12
-5.98637e-12
1.71733e-05
1.28115e-11
1.71734e-05
1.19308e-11
1.71734e-05
9.93556e-12
1.71734e-05
8.82685e-12
1.71734e-05
8.58857e-12
1.71734e-05
8.13451e-12
1.71735e-05
7.11071e-12
1.71735e-05
5.79646e-12
1.71735e-05
4.67544e-12
1.71735e-05
3.88237e-12
1.71735e-05
3.15302e-12
1.71735e-05
2.25526e-12
1.71735e-05
1.29026e-12
1.71735e-05
4.2128e-13
1.71735e-05
-3.09182e-13
1.71735e-05
-8.06447e-13
1.71735e-05
-1.30024e-12
1.71735e-05
-2.61118e-12
1.71735e-05
-3.48693e-12
-3.3909e-12
6.14019e-06
6.1402e-06
6.14021e-06
6.14022e-06
6.14023e-06
6.14024e-06
6.14025e-06
6.14026e-06
6.14026e-06
6.14027e-06
6.14027e-06
6.14028e-06
6.14028e-06
6.14028e-06
6.14028e-06
6.14028e-06
6.14028e-06
6.14028e-06
6.14028e-06
)
;

boundaryField
{
    movingWall
    {
        type            calculated;
        value           uniform 0;
    }
    bottomWall
    {
        type            calculated;
        value           uniform 0;
    }
    leftSide
    {
        type            calculated;
        value           nonuniform List<scalar> 
20
(
-6.14015e-06
-1.71733e-05
-2.69645e-05
-3.55189e-05
-4.28414e-05
-4.89362e-05
-5.38072e-05
-5.74576e-05
-5.98899e-05
-6.11056e-05
-6.11056e-05
-5.98899e-05
-5.74577e-05
-5.38073e-05
-4.89363e-05
-4.28415e-05
-3.5519e-05
-2.69646e-05
-1.71733e-05
-6.14018e-06
)
;
    }
    rightSide
    {
        type            calculated;
        value           nonuniform List<scalar> 
20
(
6.14023e-06
1.71734e-05
2.69646e-05
3.55189e-05
4.28413e-05
4.89361e-05
5.38071e-05
5.74574e-05
5.98896e-05
6.11054e-05
6.11054e-05
5.98898e-05
5.74577e-05
5.38074e-05
4.89364e-05
4.28417e-05
3.55193e-05
2.69648e-05
1.71735e-05
6.14028e-06
)
;
    }
    frontAndBack
    {
        type            empty;
        value           nonuniform List<scalar> 0();
    }
}


// ************************************************************************* //
