/*--------------------------------*- C++ -*----------------------------------*\
| =========                 |                                                 |
| \\      /  F ield         | OpenFOAM: The Open Source CFD Toolbox           |
|  \\    /   O peration     | Version:  v2012                                 |
|   \\  /    A nd           | Website:  www.openfoam.com                      |
|    \\/     M anipulation  |                                                 |
\*---------------------------------------------------------------------------*/
FoamFile
{
    version     2.0;
    format      ascii;
    class       volVectorField;
    location    "0.4";
    object      U;
}
// * * * * * * * * * * * * * * * * * * * * * * * * * * * * * * * * * * * * * //

dimensions      [0 1 -1 0 0 0 0];


internalField   nonuniform List<vector> 
400
(
(0.122803 -7.75651e-08 0)
(0.122803 -8.34984e-08 0)
(0.122803 -8.34792e-08 0)
(0.122804 -8.44011e-08 0)
(0.122804 -9.73031e-08 0)
(0.122804 -9.27375e-08 0)
(0.122804 -7.1711e-08 0)
(0.122804 -6.18913e-08 0)
(0.122805 -5.55281e-08 0)
(0.122805 -3.91098e-08 0)
(0.122805 -2.30989e-08 0)
(0.122805 -1.9356e-08 0)
(0.122805 -2.48277e-08 0)
(0.122805 -2.84514e-08 0)
(0.122805 -2.23592e-08 0)
(0.122805 -8.90659e-09 0)
(0.122805 6.05752e-09 0)
(0.122805 2.44377e-08 0)
(0.122805 5.00365e-08 0)
(0.122805 5.98239e-08 0)
(0.343465 -2.6919e-07 0)
(0.343466 -3.07027e-07 0)
(0.343466 -3.434e-07 0)
(0.343466 -3.44466e-07 0)
(0.343466 -3.38333e-07 0)
(0.343467 -3.15248e-07 0)
(0.343467 -2.71097e-07 0)
(0.343467 -2.40537e-07 0)
(0.343467 -2.17307e-07 0)
(0.343468 -1.75162e-07 0)
(0.343468 -1.21224e-07 0)
(0.343468 -7.85283e-08 0)
(0.343468 -5.78074e-08 0)
(0.343468 -5.1203e-08 0)
(0.343468 -3.99071e-08 0)
(0.343468 -1.18342e-08 0)
(0.343468 3.32038e-08 0)
(0.343468 9.30391e-08 0)
(0.343468 1.56366e-07 0)
(0.343468 1.6896e-07 0)
(0.53929 -4.95206e-07 0)
(0.53929 -5.67404e-07 0)
(0.53929 -6.2772e-07 0)
(0.53929 -6.346e-07 0)
(0.53929 -6.00619e-07 0)
(0.539291 -5.56143e-07 0)
(0.539291 -5.02885e-07 0)
(0.539291 -4.42446e-07 0)
(0.539291 -3.83272e-07 0)
(0.539291 -3.21409e-07 0)
(0.539291 -2.50653e-07 0)
(0.539291 -1.76898e-07 0)
(0.539291 -1.1291e-07 0)
(0.539291 -6.47981e-08 0)
(0.539291 -2.23956e-08 0)
(0.539291 3.22209e-08 0)
(0.539291 1.03832e-07 0)
(0.539291 1.84729e-07 0)
(0.539291 2.5032e-07 0)
(0.539291 2.48686e-07 0)
(0.710378 -6.14164e-07 0)
(0.710378 -7.0105e-07 0)
(0.710378 -7.49639e-07 0)
(0.710378 -7.64667e-07 0)
(0.710379 -7.56144e-07 0)
(0.710379 -7.23216e-07 0)
(0.710379 -6.61096e-07 0)
(0.710379 -5.75304e-07 0)
(0.710379 -4.80632e-07 0)
(0.710379 -3.91113e-07 0)
(0.710379 -3.11028e-07 0)
(0.710379 -2.33449e-07 0)
(0.710379 -1.49723e-07 0)
(0.710379 -6.01277e-08 0)
(0.710379 2.85711e-08 0)
(0.710379 1.15978e-07 0)
(0.710379 1.97926e-07 0)
(0.710379 2.67065e-07 0)
(0.710379 3.09574e-07 0)
(0.710379 2.95044e-07 0)
(0.856827 -5.80039e-07 0)
(0.856827 -6.72707e-07 0)
(0.856827 -7.39975e-07 0)
(0.856827 -7.63734e-07 0)
(0.856827 -7.62058e-07 0)
(0.856827 -7.3873e-07 0)
(0.856827 -6.86783e-07 0)
(0.856827 -6.07012e-07 0)
(0.856827 -5.0521e-07 0)
(0.856827 -3.93539e-07 0)
(0.856827 -2.87729e-07 0)
(0.856827 -1.93145e-07 0)
(0.856827 -1.01579e-07 0)
(0.856827 -5.03432e-09 0)
(0.856826 9.11515e-08 0)
(0.856826 1.81418e-07 0)
(0.856826 2.61836e-07 0)
(0.856826 3.19617e-07 0)
(0.856826 3.44643e-07 0)
(0.856826 3.22444e-07 0)
(0.978724 -4.74557e-07 0)
(0.978724 -5.52399e-07 0)
(0.978724 -6.18166e-07 0)
(0.978723 -6.44715e-07 0)
(0.978723 -6.37997e-07 0)
(0.978723 -6.06565e-07 0)
(0.978723 -5.5485e-07 0)
(0.978723 -4.88903e-07 0)
(0.978723 -4.05994e-07 0)
(0.978722 -3.04399e-07 0)
(0.978722 -1.96042e-07 0)
(0.978722 -9.67171e-08 0)
(0.978722 -9.83386e-09 0)
(0.978722 7.32823e-08 0)
(0.978722 1.568e-07 0)
(0.978722 2.35593e-07 0)
(0.978722 3.06021e-07 0)
(0.978722 3.5155e-07 0)
(0.978722 3.60538e-07 0)
(0.978722 3.33549e-07 0)
(1.07614 -3.13943e-07 0)
(1.07614 -3.67328e-07 0)
(1.07614 -4.01884e-07 0)
(1.07614 -4.11136e-07 0)
(1.07614 -3.97757e-07 0)
(1.07614 -3.61855e-07 0)
(1.07614 -3.0757e-07 0)
(1.07614 -2.49686e-07 0)
(1.07614 -1.89215e-07 0)
(1.07614 -1.17732e-07 0)
(1.07614 -3.56691e-08 0)
(1.07614 4.59301e-08 0)
(1.07614 1.17247e-07 0)
(1.07614 1.7872e-07 0)
(1.07614 2.38216e-07 0)
(1.07614 2.94831e-07 0)
(1.07614 3.44754e-07 0)
(1.07614 3.72599e-07 0)
(1.07614 3.64276e-07 0)
(1.07614 3.32432e-07 0)
(1.14915 -9.55146e-08 0)
(1.14915 -1.19245e-07 0)
(1.14915 -1.08829e-07 0)
(1.14915 -8.35722e-08 0)
(1.14915 -5.59719e-08 0)
(1.14915 -2.24052e-08 0)
(1.14915 2.16977e-08 0)
(1.14915 6.49098e-08 0)
(1.14915 1.03291e-07 0)
(1.14915 1.43688e-07 0)
(1.14915 1.8966e-07 0)
(1.14915 2.38108e-07 0)
(1.14915 2.82289e-07 0)
(1.14915 3.16031e-07 0)
(1.14915 3.43087e-07 0)
(1.14915 3.6699e-07 0)
(1.14915 3.85696e-07 0)
(1.14915 3.88727e-07 0)
(1.14915 3.61073e-07 0)
(1.14915 3.22744e-07 0)
(1.1978 1.60811e-07 0)
(1.1978 1.7119e-07 0)
(1.1978 2.28343e-07 0)
(1.1978 2.92048e-07 0)
(1.1978 3.41832e-07 0)
(1.1978 3.7895e-07 0)
(1.1978 4.09007e-07 0)
(1.19779 4.29053e-07 0)
(1.19779 4.39823e-07 0)
(1.19779 4.48471e-07 0)
(1.19779 4.56915e-07 0)
(1.19779 4.64007e-07 0)
(1.19779 4.68799e-07 0)
(1.19779 4.66884e-07 0)
(1.19779 4.57422e-07 0)
(1.19779 4.44848e-07 0)
(1.19779 4.28009e-07 0)
(1.19779 4.01396e-07 0)
(1.19779 3.5319e-07 0)
(1.19779 3.07305e-07 0)
(1.22211 4.31662e-07 0)
(1.22211 4.7925e-07 0)
(1.22211 5.80558e-07 0)
(1.22211 6.77032e-07 0)
(1.22211 7.46946e-07 0)
(1.22211 7.93161e-07 0)
(1.22211 8.14105e-07 0)
(1.22211 8.08941e-07 0)
(1.22211 7.85027e-07 0)
(1.22211 7.55312e-07 0)
(1.22211 7.23834e-07 0)
(1.22211 6.88711e-07 0)
(1.22211 6.50264e-07 0)
(1.22211 6.08528e-07 0)
(1.22211 5.61794e-07 0)
(1.22211 5.13626e-07 0)
(1.22211 4.62821e-07 0)
(1.22211 4.06021e-07 0)
(1.22211 3.3773e-07 0)
(1.22211 2.85638e-07 0)
(1.22211 6.93727e-07 0)
(1.22211 7.77264e-07 0)
(1.22211 9.17679e-07 0)
(1.22211 1.03909e-06 0)
(1.22211 1.1194e-06 0)
(1.22211 1.1695e-06 0)
(1.22211 1.18358e-06 0)
(1.22211 1.15771e-06 0)
(1.22211 1.10097e-06 0)
(1.22211 1.031e-06 0)
(1.22211 9.57698e-07 0)
(1.22211 8.81602e-07 0)
(1.22211 8.02248e-07 0)
(1.22211 7.21825e-07 0)
(1.22211 6.40107e-07 0)
(1.22211 5.5934e-07 0)
(1.22211 4.786e-07 0)
(1.22211 3.9467e-07 0)
(1.22211 3.08381e-07 0)
(1.22211 2.53187e-07 0)
(1.1978 9.23461e-07 0)
(1.1978 1.03719e-06 0)
(1.1978 1.20811e-06 0)
(1.1978 1.34682e-06 0)
(1.1978 1.42934e-06 0)
(1.1978 1.47314e-06 0)
(1.1978 1.47552e-06 0)
(1.1978 1.43112e-06 0)
(1.1978 1.3483e-06 0)
(1.1978 1.24453e-06 0)
(1.1978 1.13381e-06 0)
(1.1978 1.02146e-06 0)
(1.1978 9.07599e-07 0)
(1.1978 7.94077e-07 0)
(1.1978 6.82528e-07 0)
(1.1978 5.74333e-07 0)
(1.1978 4.69383e-07 0)
(1.1978 3.64704e-07 0)
(1.1978 2.64691e-07 0)
(1.1978 2.08639e-07 0)
(1.14915 1.09978e-06 0)
(1.14915 1.23617e-06 0)
(1.14915 1.42456e-06 0)
(1.14915 1.56851e-06 0)
(1.14915 1.6454e-06 0)
(1.14915 1.67398e-06 0)
(1.14915 1.65801e-06 0)
(1.14915 1.59426e-06 0)
(1.14915 1.49135e-06 0)
(1.14915 1.36438e-06 0)
(1.14915 1.22682e-06 0)
(1.14915 1.08752e-06 0)
(1.14915 9.49314e-07 0)
(1.14915 8.13156e-07 0)
(1.14915 6.81309e-07 0)
(1.14915 5.5484e-07 0)
(1.14915 4.34101e-07 0)
(1.14915 3.17606e-07 0)
(1.14915 2.10385e-07 0)
(1.14915 1.55236e-07 0)
(1.07615 1.20429e-06 0)
(1.07615 1.35477e-06 0)
(1.07615 1.54526e-06 0)
(1.07615 1.67855e-06 0)
(1.07615 1.73997e-06 0)
(1.07615 1.74658e-06 0)
(1.07615 1.70751e-06 0)
(1.07615 1.62409e-06 0)
(1.07615 1.50546e-06 0)
(1.07615 1.36522e-06 0)
(1.07615 1.21382e-06 0)
(1.07615 1.05974e-06 0)
(1.07615 9.08369e-07 0)
(1.07615 7.61067e-07 0)
(1.07615 6.19823e-07 0)
(1.07615 4.85952e-07 0)
(1.07615 3.59377e-07 0)
(1.07615 2.40708e-07 0)
(1.07615 1.35408e-07 0)
(1.07615 8.74958e-08 0)
(0.978727 1.22247e-06 0)
(0.978726 1.37524e-06 0)
(0.978727 1.5509e-06 0)
(0.978727 1.65806e-06 0)
(0.978727 1.69523e-06 0)
(0.978727 1.67811e-06 0)
(0.978727 1.61547e-06 0)
(0.978727 1.51543e-06 0)
(0.978727 1.38754e-06 0)
(0.978728 1.24369e-06 0)
(0.978728 1.09156e-06 0)
(0.978728 9.37086e-07 0)
(0.978728 7.86059e-07 0)
(0.978728 6.41175e-07 0)
(0.978728 5.03692e-07 0)
(0.978728 3.74511e-07 0)
(0.978729 2.52029e-07 0)
(0.978729 1.38069e-07 0)
(0.978729 4.15675e-08 0)
(0.978729 6.31048e-09 0)
(0.85683 1.1467e-06 0)
(0.85683 1.28543e-06 0)
(0.85683 1.42788e-06 0)
(0.85683 1.49785e-06 0)
(0.856831 1.50671e-06 0)
(0.856831 1.47283e-06 0)
(0.856831 1.39679e-06 0)
(0.856831 1.29043e-06 0)
(0.856832 1.16546e-06 0)
(0.856832 1.03192e-06 0)
(0.856832 8.95121e-07 0)
(0.856832 7.57869e-07 0)
(0.856833 6.23435e-07 0)
(0.856833 4.94553e-07 0)
(0.856833 3.72027e-07 0)
(0.856833 2.56121e-07 0)
(0.856833 1.44618e-07 0)
(0.856833 3.94139e-08 0)
(0.856833 -4.55646e-08 0)
(0.856834 -6.75664e-08 0)
(0.710381 9.76959e-07 0)
(0.710381 1.08218e-06 0)
(0.710381 1.17312e-06 0)
(0.710381 1.20308e-06 0)
(0.710382 1.18549e-06 0)
(0.710382 1.14306e-06 0)
(0.710382 1.07038e-06 0)
(0.710383 9.75632e-07 0)
(0.710383 8.69778e-07 0)
(0.710384 7.60109e-07 0)
(0.710384 6.50173e-07 0)
(0.710384 5.42053e-07 0)
(0.710384 4.36925e-07 0)
(0.710384 3.35286e-07 0)
(0.710385 2.36443e-07 0)
(0.710385 1.39534e-07 0)
(0.710385 4.44064e-08 0)
(0.710385 -4.54286e-08 0)
(0.710385 -1.12731e-07 0)
(0.710385 -1.21042e-07 0)
(0.539292 7.23851e-07 0)
(0.539292 7.7696e-07 0)
(0.539292 8.0021e-07 0)
(0.539293 7.93761e-07 0)
(0.539293 7.6461e-07 0)
(0.539293 7.26653e-07 0)
(0.539294 6.7353e-07 0)
(0.539294 6.06966e-07 0)
(0.539295 5.33609e-07 0)
(0.539295 4.58576e-07 0)
(0.539295 3.84717e-07 0)
(0.539295 3.13698e-07 0)
(0.539296 2.44994e-07 0)
(0.539296 1.76807e-07 0)
(0.539296 1.08681e-07 0)
(0.539296 4.01093e-08 0)
(0.539296 -2.85791e-08 0)
(0.539296 -9.416e-08 0)
(0.539296 -1.35136e-07 0)
(0.539296 -1.38021e-07 0)
(0.343467 4.10942e-07 0)
(0.343467 4.09302e-07 0)
(0.343468 3.76953e-07 0)
(0.343468 3.5026e-07 0)
(0.343468 3.32244e-07 0)
(0.343469 3.12523e-07 0)
(0.343469 2.83216e-07 0)
(0.343469 2.46365e-07 0)
(0.34347 2.09164e-07 0)
(0.34347 1.75383e-07 0)
(0.34347 1.43608e-07 0)
(0.34347 1.11637e-07 0)
(0.34347 7.93235e-08 0)
(0.343471 4.66657e-08 0)
(0.343471 1.45523e-08 0)
(0.343471 -1.48335e-08 0)
(0.343471 -4.40118e-08 0)
(0.343471 -8.21583e-08 0)
(0.343471 -1.03298e-07 0)
(0.343471 -1.03309e-07 0)
(0.122804 1.2133e-07 0)
(0.122804 1.09154e-07 0)
(0.122804 8.48784e-08 0)
(0.122804 6.97131e-08 0)
(0.122805 6.50394e-08 0)
(0.122805 5.95234e-08 0)
(0.122805 4.94658e-08 0)
(0.122805 3.7418e-08 0)
(0.122805 2.775e-08 0)
(0.122805 2.15937e-08 0)
(0.122805 1.63679e-08 0)
(0.122806 9.62139e-09 0)
(0.122806 1.87919e-09 0)
(0.122806 -5.51629e-09 0)
(0.122806 -1.20889e-08 0)
(0.122806 -1.6814e-08 0)
(0.122806 -2.1305e-08 0)
(0.122806 -3.33227e-08 0)
(0.122806 -4.15772e-08 0)
(0.122806 -3.87158e-08 0)
)
;

boundaryField
{
    movingWall
    {
        type            fixedValue;
        value           uniform (0 0 0);
    }
    bottomWall
    {
        type            noSlip;
    }
    leftSide
    {
        type            zeroGradient;
    }
    rightSide
    {
        type            zeroGradient;
    }
    frontAndBack
    {
        type            empty;
    }
}


// ************************************************************************* //
