/*--------------------------------*- C++ -*----------------------------------*\
| =========                 |                                                 |
| \\      /  F ield         | OpenFOAM: The Open Source CFD Toolbox           |
|  \\    /   O peration     | Version:  v2012                                 |
|   \\  /    A nd           | Website:  www.openfoam.com                      |
|    \\/     M anipulation  |                                                 |
\*---------------------------------------------------------------------------*/
FoamFile
{
    version     2.0;
    format      ascii;
    class       volScalarField;
    location    "0.1";
    object      p;
}
// * * * * * * * * * * * * * * * * * * * * * * * * * * * * * * * * * * * * * //

dimensions      [0 2 -2 0 0 0 0];


internalField   nonuniform List<scalar> 
400
(
0.975002
0.925003
0.875003
0.825003
0.775002
0.725002
0.675001
0.625001
0.575001
0.525
0.474999
0.424998
0.374997
0.324996
0.274996
0.224997
0.174997
0.124997
0.0749973
0.0249985
0.975002
0.925002
0.875002
0.825001
0.775001
0.725001
0.675
0.625
0.575
0.524999
0.474998
0.424998
0.374997
0.324996
0.274996
0.224996
0.174997
0.124997
0.0749977
0.0249987
0.975001
0.925002
0.875001
0.825001
0.775001
0.725
0.675
0.625
0.574999
0.524998
0.474998
0.424997
0.374997
0.324996
0.274996
0.224996
0.174997
0.124997
0.0749977
0.0249986
0.975001
0.925001
0.875001
0.825001
0.775
0.725
0.674999
0.624999
0.574999
0.524999
0.474998
0.424997
0.374997
0.324996
0.274996
0.224997
0.174997
0.124997
0.0749976
0.0249985
0.975
0.925001
0.875001
0.825001
0.775001
0.725
0.674999
0.624999
0.574999
0.524999
0.474998
0.424997
0.374997
0.324996
0.274996
0.224996
0.174997
0.124997
0.0749975
0.0249984
0.975
0.925001
0.875001
0.825001
0.775001
0.725
0.674999
0.624999
0.575
0.524999
0.474999
0.424998
0.374997
0.324997
0.274996
0.224997
0.174997
0.124997
0.0749974
0.0249983
0.974999
0.925
0.875001
0.825001
0.775001
0.725
0.675
0.625
0.575
0.525
0.475
0.424999
0.374998
0.324997
0.274997
0.224997
0.174997
0.124997
0.0749974
0.0249982
0.974999
0.925
0.875001
0.825001
0.775001
0.725
0.675
0.625001
0.575001
0.525001
0.475
0.425
0.374999
0.324998
0.274998
0.224998
0.174998
0.124998
0.0749975
0.0249981
0.974998
0.925
0.875001
0.825001
0.775001
0.725001
0.675001
0.625001
0.575002
0.525001
0.475001
0.425
0.375
0.324999
0.274999
0.224998
0.174998
0.124998
0.0749977
0.0249982
0.974998
0.925
0.875001
0.825002
0.775002
0.725002
0.675002
0.625002
0.575002
0.525002
0.475002
0.425001
0.375
0.325
0.274999
0.224999
0.174999
0.124999
0.0749981
0.0249985
0.974999
0.925001
0.875002
0.825003
0.775003
0.725003
0.675003
0.625003
0.575003
0.525003
0.475002
0.425002
0.375001
0.325001
0.275
0.225
0.175
0.124999
0.0749987
0.024999
0.975
0.925001
0.875003
0.825004
0.775004
0.725004
0.675005
0.625005
0.575004
0.525004
0.475003
0.425003
0.375002
0.325002
0.275001
0.225001
0.175
0.125
0.0749993
0.0249995
0.975
0.925003
0.875004
0.825005
0.775005
0.725006
0.675006
0.625006
0.575006
0.525005
0.475005
0.425004
0.375003
0.325003
0.275002
0.225002
0.175001
0.125001
0.075
0.0250001
0.975001
0.925004
0.875005
0.825006
0.775006
0.725007
0.675008
0.625008
0.575008
0.525007
0.475006
0.425005
0.375005
0.325004
0.275003
0.225003
0.175002
0.125001
0.0750006
0.0250007
0.975002
0.925005
0.875006
0.825007
0.775008
0.725009
0.67501
0.62501
0.575009
0.525008
0.475008
0.425007
0.375006
0.325005
0.275004
0.225003
0.175003
0.125002
0.0750013
0.0250012
0.975003
0.925006
0.875007
0.825008
0.775009
0.72501
0.675011
0.625011
0.57501
0.52501
0.475009
0.425008
0.375007
0.325006
0.275005
0.225004
0.175003
0.125002
0.075002
0.0250017
0.975004
0.925007
0.875008
0.825009
0.775011
0.725012
0.675012
0.625012
0.575011
0.52501
0.475009
0.425008
0.375008
0.325007
0.275006
0.225005
0.175004
0.125003
0.0750026
0.0250021
0.975005
0.925008
0.875009
0.825011
0.775012
0.725013
0.675014
0.625014
0.575013
0.525012
0.475011
0.42501
0.375009
0.325008
0.275007
0.225006
0.175004
0.125004
0.0750031
0.0250022
0.975005
0.925009
0.875011
0.825013
0.775014
0.725015
0.675016
0.625015
0.575014
0.525013
0.475012
0.425011
0.37501
0.325009
0.275008
0.225006
0.175005
0.125004
0.0750037
0.0250023
0.975006
0.925011
0.875013
0.825015
0.775016
0.725017
0.675017
0.625017
0.575016
0.525015
0.475013
0.425012
0.375011
0.32501
0.275009
0.225008
0.175006
0.125006
0.0750046
0.0250026
)
;

boundaryField
{
    movingWall
    {
        type            zeroGradient;
    }
    bottomWall
    {
        type            zeroGradient;
    }
    leftSide
    {
        type            fixedValue;
        value           uniform 1;
    }
    rightSide
    {
        type            fixedValue;
        value           uniform 0;
    }
    frontAndBack
    {
        type            empty;
    }
}


// ************************************************************************* //
