/*--------------------------------*- C++ -*----------------------------------*\
| =========                 |                                                 |
| \\      /  F ield         | OpenFOAM: The Open Source CFD Toolbox           |
|  \\    /   O peration     | Version:  v2012                                 |
|   \\  /    A nd           | Website:  www.openfoam.com                      |
|    \\/     M anipulation  |                                                 |
\*---------------------------------------------------------------------------*/
FoamFile
{
    version     2.0;
    format      ascii;
    class       surfaceScalarField;
    location    "0.1";
    object      phi;
}
// * * * * * * * * * * * * * * * * * * * * * * * * * * * * * * * * * * * * * //

dimensions      [0 3 -1 0 0 0 0];
oriented        oriented;


internalField   nonuniform List<scalar> 
760
(
4.3016e-06
-1.9417e-11
4.30161e-06
-1.67214e-11
4.30163e-06
-1.37386e-11
4.30164e-06
-1.27716e-11
4.30165e-06
-1.42601e-11
4.30167e-06
-1.60372e-11
4.30168e-06
-1.64495e-11
4.3017e-06
-1.53394e-11
4.30171e-06
-1.36477e-11
4.30173e-06
-1.28907e-11
4.30174e-06
-1.31858e-11
4.30175e-06
-1.27084e-11
4.30175e-06
-1.0046e-11
4.30176e-06
-5.85486e-12
4.30176e-06
-1.83087e-12
4.30176e-06
1.15345e-12
4.30176e-06
3.60886e-12
4.30175e-06
6.64448e-12
4.30174e-06
1.0361e-11
1.38384e-11
1.17029e-05
-4.17687e-11
1.1703e-05
-4.05858e-11
1.1703e-05
-4.3498e-11
1.1703e-05
-4.58191e-11
1.1703e-05
-4.74737e-11
1.17031e-05
-4.95628e-11
1.17031e-05
-5.16268e-11
1.17031e-05
-5.22633e-11
1.17032e-05
-5.0343e-11
1.17032e-05
-4.61777e-11
1.17032e-05
-4.11906e-11
1.17033e-05
-3.59501e-11
1.17033e-05
-2.95674e-11
1.17033e-05
-2.11236e-11
1.17033e-05
-1.0936e-11
1.17033e-05
-2.47515e-13
1.17033e-05
9.93888e-12
1.17033e-05
1.94158e-11
1.17033e-05
2.79665e-11
3.36045e-11
1.79973e-05
-6.48732e-11
1.79974e-05
-6.72763e-11
1.79974e-05
-7.42714e-11
1.79974e-05
-8.08519e-11
1.79975e-05
-8.53325e-11
1.79975e-05
-8.86787e-11
1.79975e-05
-9.19195e-11
1.79976e-05
-9.42906e-11
1.79976e-05
-9.36834e-11
1.79977e-05
-8.8574e-11
1.79977e-05
-7.91975e-11
1.79977e-05
-6.68596e-11
1.79978e-05
-5.26589e-11
1.79978e-05
-3.69685e-11
1.79978e-05
-1.97917e-11
1.79978e-05
-1.44864e-12
1.79978e-05
1.70161e-11
1.79978e-05
3.38396e-11
1.79977e-05
4.74842e-11
5.53937e-11
2.32762e-05
-7.66946e-11
2.32762e-05
-8.23931e-11
2.32762e-05
-9.34796e-11
2.32762e-05
-1.04914e-10
2.32763e-05
-1.14742e-10
2.32763e-05
-1.21835e-10
2.32763e-05
-1.26079e-10
2.32764e-05
-1.27818e-10
2.32764e-05
-1.26444e-10
2.32764e-05
-1.20519e-10
2.32765e-05
-1.09003e-10
2.32765e-05
-9.21066e-11
2.32765e-05
-7.11732e-11
2.32765e-05
-4.78328e-11
2.32765e-05
-2.32203e-11
2.32765e-05
2.05791e-12
2.32765e-05
2.72071e-11
2.32765e-05
5.03246e-11
2.32765e-05
6.89326e-11
7.94867e-11
2.76249e-05
-6.96405e-11
2.76249e-05
-7.71253e-11
2.76249e-05
-9.15764e-11
2.76249e-05
-1.06699e-10
2.7625e-05
-1.20977e-10
2.7625e-05
-1.329e-10
2.7625e-05
-1.40403e-10
2.7625e-05
-1.42664e-10
2.7625e-05
-1.39949e-10
2.7625e-05
-1.32425e-10
2.7625e-05
-1.19621e-10
2.7625e-05
-1.00987e-10
2.7625e-05
-7.68419e-11
2.7625e-05
-4.8563e-11
2.7625e-05
-1.79821e-11
2.7625e-05
1.32535e-11
2.7625e-05
4.37659e-11
2.7625e-05
7.1686e-11
2.76249e-05
9.41022e-11
1.06825e-10
3.11211e-05
-4.26862e-11
3.11211e-05
-5.11245e-11
3.11211e-05
-6.73754e-11
3.11211e-05
-8.438e-11
3.1121e-05
-1.00214e-10
3.1121e-05
-1.14132e-10
3.1121e-05
-1.24137e-10
3.1121e-05
-1.2835e-10
3.1121e-05
-1.26211e-10
3.1121e-05
-1.18133e-10
3.11209e-05
-1.04518e-10
3.11209e-05
-8.5315e-11
3.11209e-05
-6.0563e-11
3.11209e-05
-3.10072e-11
3.11209e-05
1.86262e-12
3.11208e-05
3.61011e-11
3.11208e-05
6.95853e-11
3.11208e-05
1.00014e-10
3.11208e-05
1.24148e-10
1.37885e-10
3.38324e-05
4.07461e-12
3.38324e-05
-4.09754e-12
3.38323e-05
-1.98044e-11
3.38323e-05
-3.6572e-11
3.38322e-05
-5.18721e-11
3.38322e-05
-6.50536e-11
3.38321e-05
-7.49781e-11
3.38321e-05
-8.01903e-11
3.3832e-05
-7.96816e-11
3.3832e-05
-7.3158e-11
3.38319e-05
-6.0853e-11
3.38319e-05
-4.30637e-11
3.38318e-05
-2.0033e-11
3.38318e-05
7.74556e-12
3.38318e-05
3.92178e-11
3.38317e-05
7.26495e-11
3.38317e-05
1.05647e-10
3.38317e-05
1.35456e-10
3.38316e-05
1.58691e-10
1.71976e-10
3.58149e-05
6.71181e-11
3.58148e-05
6.08291e-11
3.58148e-05
4.87406e-11
3.58147e-05
3.50555e-11
3.58146e-05
2.19218e-11
3.58145e-05
1.05699e-11
3.58145e-05
2.10691e-12
3.58144e-05
-2.77866e-12
3.58143e-05
-3.6034e-12
3.58142e-05
2.50353e-13
3.58142e-05
9.2241e-12
3.58141e-05
2.3306e-11
3.58141e-05
4.21741e-11
3.5814e-05
6.53567e-11
3.58139e-05
9.2102e-11
3.58139e-05
1.21075e-10
3.58138e-05
1.50059e-10
3.58138e-05
1.76099e-10
3.58138e-05
1.95909e-10
2.07256e-10
3.71119e-05
1.40112e-10
3.71119e-05
1.36574e-10
3.71118e-05
1.30521e-10
3.71117e-05
1.22824e-10
3.71116e-05
1.14028e-10
3.71115e-05
1.05406e-10
3.71114e-05
9.85771e-11
3.71113e-05
9.41968e-11
3.71112e-05
9.22123e-11
3.71111e-05
9.29668e-11
3.7111e-05
9.72693e-11
3.7111e-05
1.05691e-10
3.71109e-05
1.18263e-10
3.71108e-05
1.34646e-10
3.71108e-05
1.54263e-10
3.71107e-05
1.7611e-10
3.71107e-05
1.98371e-10
3.71106e-05
2.18271e-10
3.71106e-05
2.32879e-10
2.41216e-10
3.7753e-05
2.15387e-10
3.77529e-05
2.1487e-10
3.77528e-05
2.15557e-10
3.77527e-05
2.1488e-10
3.77526e-05
2.11711e-10
3.77525e-05
2.06676e-10
3.77524e-05
2.01463e-10
3.77523e-05
1.97072e-10
3.77522e-05
1.93523e-10
3.77521e-05
1.90921e-10
3.7752e-05
1.90021e-10
3.77519e-05
1.91776e-10
3.77519e-05
1.96768e-10
3.77518e-05
2.05085e-10
3.77517e-05
2.16383e-10
3.77517e-05
2.29869e-10
3.77516e-05
2.44079e-10
3.77516e-05
2.56709e-10
3.77516e-05
2.65396e-10
2.70444e-10
3.77529e-05
2.83773e-10
3.77528e-05
2.86245e-10
3.77527e-05
2.93084e-10
3.77527e-05
2.9846e-10
3.77526e-05
3.003e-10
3.77525e-05
2.98744e-10
3.77524e-05
2.95009e-10
3.77523e-05
2.90132e-10
3.77522e-05
2.84522e-10
3.77521e-05
2.7847e-10
3.7752e-05
2.72592e-10
3.7752e-05
2.67856e-10
3.77519e-05
2.6521e-10
3.77518e-05
2.65273e-10
3.77518e-05
2.68154e-10
3.77517e-05
2.73332e-10
3.77517e-05
2.79603e-10
3.77517e-05
2.85145e-10
3.77516e-05
2.8818e-10
2.90297e-10
3.71117e-05
3.36103e-10
3.71116e-05
3.40922e-10
3.71116e-05
3.52295e-10
3.71115e-05
3.6161e-10
3.71115e-05
3.66477e-10
3.71114e-05
3.67146e-10
3.71113e-05
3.6435e-10
3.71113e-05
3.5877e-10
3.71112e-05
3.50982e-10
3.71111e-05
3.41699e-10
3.71111e-05
3.31627e-10
3.7111e-05
3.21591e-10
3.7111e-05
3.12569e-10
3.71109e-05
3.05517e-10
3.71109e-05
3.01052e-10
3.71109e-05
2.99087e-10
3.71108e-05
2.9873e-10
3.71108e-05
2.98543e-10
3.71108e-05
2.97175e-10
2.96935e-10
3.58145e-05
3.6509e-10
3.58145e-05
3.70809e-10
3.58145e-05
3.8398e-10
3.58144e-05
3.94534e-10
3.58144e-05
4.001e-10
3.58144e-05
4.01316e-10
3.58143e-05
3.98637e-10
3.58143e-05
3.92362e-10
3.58143e-05
3.82863e-10
3.58142e-05
3.71026e-10
3.58142e-05
3.57846e-10
3.58142e-05
3.44181e-10
3.58142e-05
3.30909e-10
3.58141e-05
3.19015e-10
3.58141e-05
3.09403e-10
3.58141e-05
3.02416e-10
3.58141e-05
2.97564e-10
3.58141e-05
2.93809e-10
3.58142e-05
2.90218e-10
2.88855e-10
3.38319e-05
3.66317e-10
3.38319e-05
3.7101e-10
3.38319e-05
3.82543e-10
3.38319e-05
3.91412e-10
3.38319e-05
3.95657e-10
3.38319e-05
3.96131e-10
3.38319e-05
3.92919e-10
3.38319e-05
3.86069e-10
3.38319e-05
3.7576e-10
3.3832e-05
3.62589e-10
3.3832e-05
3.47568e-10
3.3832e-05
3.31774e-10
3.3832e-05
3.16214e-10
3.3832e-05
3.01878e-10
3.3832e-05
2.89712e-10
3.3832e-05
2.80267e-10
3.38321e-05
2.73389e-10
3.38321e-05
2.68425e-10
3.38321e-05
2.64881e-10
2.64611e-10
3.11206e-05
3.38821e-10
3.11206e-05
3.40622e-10
3.11206e-05
3.47318e-10
3.11207e-05
3.51956e-10
3.11207e-05
3.53394e-10
3.11208e-05
3.52487e-10
3.11208e-05
3.48713e-10
3.11209e-05
3.41569e-10
3.11209e-05
3.31312e-10
3.11209e-05
3.18418e-10
3.1121e-05
3.03599e-10
3.1121e-05
2.87833e-10
3.11211e-05
2.72202e-10
3.11211e-05
2.57755e-10
3.11212e-05
2.45441e-10
3.11212e-05
2.35893e-10
3.11213e-05
2.29241e-10
3.11213e-05
2.25219e-10
3.11213e-05
2.23414e-10
2.25495e-10
2.76243e-05
2.85509e-10
2.76244e-05
2.82992e-10
2.76245e-05
2.82817e-10
2.76245e-05
2.81886e-10
2.76246e-05
2.79894e-10
2.76247e-05
2.77297e-10
2.76248e-05
2.7348e-10
2.76248e-05
2.67232e-10
2.76249e-05
2.58438e-10
2.7625e-05
2.47557e-10
2.76251e-05
2.35141e-10
2.76251e-05
2.21867e-10
2.76252e-05
2.08574e-10
2.76253e-05
1.96203e-10
2.76253e-05
1.85702e-10
2.76254e-05
1.77817e-10
2.76254e-05
1.72987e-10
2.76255e-05
1.71491e-10
2.76255e-05
1.73059e-10
1.7763e-10
2.32756e-05
2.13264e-10
2.32757e-05
2.0577e-10
2.32758e-05
1.98673e-10
2.32759e-05
1.92836e-10
2.3276e-05
1.88543e-10
2.32761e-05
1.84483e-10
2.32761e-05
1.79969e-10
2.32762e-05
1.74277e-10
2.32763e-05
1.67227e-10
2.32764e-05
1.59109e-10
2.32765e-05
1.50278e-10
2.32766e-05
1.41075e-10
2.32767e-05
1.31925e-10
2.32767e-05
1.23433e-10
2.32768e-05
1.16385e-10
2.32769e-05
1.11544e-10
2.32769e-05
1.09547e-10
2.3277e-05
1.11225e-10
2.3277e-05
1.17073e-10
1.25266e-10
1.79969e-05
1.32749e-10
1.79969e-05
1.20793e-10
1.7997e-05
1.0925e-10
1.79971e-05
1.0068e-10
1.79972e-05
9.58314e-11
1.79973e-05
9.29687e-11
1.79974e-05
9.02154e-11
1.79975e-05
8.682e-11
1.79976e-05
8.27023e-11
1.79977e-05
7.80991e-11
1.79977e-05
7.32637e-11
1.79978e-05
6.83489e-11
1.79979e-05
6.34959e-11
1.79979e-05
5.90468e-11
1.7998e-05
5.56286e-11
1.79981e-05
5.38164e-11
1.79981e-05
5.39834e-11
1.79982e-05
5.69495e-11
1.79982e-05
6.43697e-11
7.44614e-11
1.17026e-05
5.52391e-11
1.17027e-05
4.36483e-11
1.17027e-05
3.46276e-11
1.17028e-05
3.02574e-11
1.17029e-05
2.80382e-11
1.1703e-05
2.69937e-11
1.1703e-05
2.61741e-11
1.17031e-05
2.51195e-11
1.17032e-05
2.36952e-11
1.17032e-05
2.19516e-11
1.17033e-05
2.00621e-11
1.17033e-05
1.82693e-11
1.17034e-05
1.67457e-11
1.17034e-05
1.55058e-11
1.17034e-05
1.46017e-11
1.17035e-05
1.41869e-11
1.17035e-05
1.44288e-11
1.17036e-05
1.65021e-11
1.17036e-05
2.23763e-11
2.99813e-11
4.30147e-06
4.30151e-06
4.30154e-06
4.30157e-06
4.3016e-06
4.30163e-06
4.30166e-06
4.30168e-06
4.3017e-06
4.30172e-06
4.30174e-06
4.30176e-06
4.30178e-06
4.30179e-06
4.30181e-06
4.30182e-06
4.30183e-06
4.30185e-06
4.30187e-06
)
;

boundaryField
{
    movingWall
    {
        type            calculated;
        value           uniform 0;
    }
    bottomWall
    {
        type            calculated;
        value           uniform 0;
    }
    leftSide
    {
        type            calculated;
        value           nonuniform List<scalar> 
20
(
-4.30158e-06
-1.17029e-05
-1.79973e-05
-2.32762e-05
-2.7625e-05
-3.11212e-05
-3.38325e-05
-3.5815e-05
-3.7112e-05
-3.7753e-05
-3.7753e-05
-3.71118e-05
-3.58146e-05
-3.38319e-05
-3.11205e-05
-2.76243e-05
-2.32755e-05
-1.79968e-05
-1.17025e-05
-4.30141e-06
)
;
    }
    rightSide
    {
        type            calculated;
        value           nonuniform List<scalar> 
20
(
4.30172e-06
1.17033e-05
1.79977e-05
2.32764e-05
2.76249e-05
3.11207e-05
3.38316e-05
3.58137e-05
3.71105e-05
3.77515e-05
3.77516e-05
3.71108e-05
3.58142e-05
3.38321e-05
3.11214e-05
2.76256e-05
2.32771e-05
1.79983e-05
1.17037e-05
4.3019e-06
)
;
    }
    frontAndBack
    {
        type            empty;
        value           nonuniform List<scalar> 0();
    }
}


// ************************************************************************* //
