/*--------------------------------*- C++ -*----------------------------------*\
| =========                 |                                                 |
| \\      /  F ield         | OpenFOAM: The Open Source CFD Toolbox           |
|  \\    /   O peration     | Version:  v2012                                 |
|   \\  /    A nd           | Website:  www.openfoam.com                      |
|    \\/     M anipulation  |                                                 |
\*---------------------------------------------------------------------------*/
FoamFile
{
    version     2.0;
    format      ascii;
    class       volVectorField;
    location    "0.1";
    object      U;
}
// * * * * * * * * * * * * * * * * * * * * * * * * * * * * * * * * * * * * * //

dimensions      [0 1 -1 0 0 0 0];


internalField   nonuniform List<vector> 
400
(
(0.0860317 -1.71329e-07 0)
(0.0860321 -1.39091e-07 0)
(0.0860324 -1.04498e-07 0)
(0.0860327 -8.71649e-08 0)
(0.0860329 -9.36179e-08 0)
(0.0860332 -1.05618e-07 0)
(0.0860335 -1.0869e-07 0)
(0.0860338 -1.01088e-07 0)
(0.0860341 -8.89349e-08 0)
(0.0860344 -8.35113e-08 0)
(0.0860347 -8.65013e-08 0)
(0.0860349 -8.40388e-08 0)
(0.086035 -6.47587e-08 0)
(0.0860351 -3.36813e-08 0)
(0.0860352 -4.34934e-09 0)
(0.0860352 1.64904e-08 0)
(0.0860352 3.38615e-08 0)
(0.0860351 5.91397e-08 0)
(0.0860349 9.42507e-08 0)
(0.0860346 1.29452e-07 0)
(0.234058 -6.00401e-07 0)
(0.234059 -5.48216e-07 0)
(0.234059 -5.32329e-07 0)
(0.23406 -5.34534e-07 0)
(0.234061 -5.57287e-07 0)
(0.234061 -5.89777e-07 0)
(0.234062 -6.10659e-07 0)
(0.234063 -6.04297e-07 0)
(0.234063 -5.69462e-07 0)
(0.234064 -5.24754e-07 0)
(0.234065 -4.84645e-07 0)
(0.234065 -4.35248e-07 0)
(0.234066 -3.53214e-07 0)
(0.234066 -2.36663e-07 0)
(0.234066 -1.06429e-07 0)
(0.234066 1.69427e-08 0)
(0.234066 1.30448e-07 0)
(0.234066 2.46309e-07 0)
(0.234066 3.65051e-07 0)
(0.234065 4.56153e-07 0)
(0.359947 -1.09682e-06 0)
(0.359947 -1.10664e-06 0)
(0.359948 -1.19872e-06 0)
(0.359948 -1.27967e-06 0)
(0.359949 -1.33545e-06 0)
(0.35995 -1.38538e-06 0)
(0.35995 -1.43471e-06 0)
(0.359951 -1.4622e-06 0)
(0.359952 -1.43566e-06 0)
(0.359953 -1.34324e-06 0)
(0.359954 -1.20103e-06 0)
(0.359954 -1.02665e-06 0)
(0.359955 -8.21825e-07 0)
(0.359955 -5.81778e-07 0)
(0.359955 -3.10532e-07 0)
(0.359956 -2.3682e-08 0)
(0.359955 2.59258e-07 0)
(0.359955 5.19574e-07 0)
(0.359955 7.39966e-07 0)
(0.359954 8.75317e-07 0)
(0.465524 -1.49171e-06 0)
(0.465524 -1.57431e-06 0)
(0.465524 -1.75557e-06 0)
(0.465524 -1.93532e-06 0)
(0.465525 -2.07849e-06 0)
(0.465526 -2.18366e-06 0)
(0.465526 -2.25807e-06 0)
(0.465527 -2.29642e-06 0)
(0.465528 -2.27242e-06 0)
(0.465528 -2.15778e-06 0)
(0.465529 -1.94476e-06 0)
(0.465529 -1.64796e-06 0)
(0.46553 -1.29116e-06 0)
(0.46553 -8.94413e-07 0)
(0.46553 -4.69633e-07 0)
(0.46553 -2.6669e-08 0)
(0.46553 4.15776e-07 0)
(0.46553 8.2093e-07 0)
(0.465529 1.14773e-06 0)
(0.465529 1.33387e-06 0)
(0.552499 -1.5648e-06 0)
(0.552499 -1.69945e-06 0)
(0.552499 -1.96269e-06 0)
(0.552499 -2.23565e-06 0)
(0.552499 -2.48212e-06 0)
(0.552499 -2.67662e-06 0)
(0.552499 -2.7971e-06 0)
(0.552499 -2.83719e-06 0)
(0.5525 -2.79247e-06 0)
(0.5525 -2.65093e-06 0)
(0.5525 -2.39907e-06 0)
(0.5525 -2.0345e-06 0)
(0.552501 -1.57366e-06 0)
(0.552501 -1.04614e-06 0)
(0.5525 -4.81587e-07 0)
(0.5525 9.68471e-08 0)
(0.5525 6.66352e-07 0)
(0.5525 1.18813e-06 0)
(0.552499 1.60728e-06 0)
(0.552498 1.84444e-06 0)
(0.622423 -1.23049e-06 0)
(0.622422 -1.39497e-06 0)
(0.622422 -1.71459e-06 0)
(0.622421 -2.04904e-06 0)
(0.622421 -2.3605e-06 0)
(0.622421 -2.62584e-06 0)
(0.62242 -2.80501e-06 0)
(0.62242 -2.87112e-06 0)
(0.62242 -2.82056e-06 0)
(0.622419 -2.65856e-06 0)
(0.622419 -2.38481e-06 0)
(0.622419 -1.99431e-06 0)
(0.622418 -1.49149e-06 0)
(0.622418 -8.97976e-07 0)
(0.622418 -2.4724e-07 0)
(0.622417 4.24321e-07 0)
(0.622417 1.0808e-06 0)
(0.622416 1.67925e-06 0)
(0.622415 2.15665e-06 0)
(0.622415 2.42757e-06 0)
(0.676649 -4.85329e-07 0)
(0.676648 -6.57666e-07 0)
(0.676647 -9.90477e-07 0)
(0.676646 -1.343e-06 0)
(0.676645 -1.66691e-06 0)
(0.676644 -1.94661e-06 0)
(0.676643 -2.15055e-06 0)
(0.676642 -2.24593e-06 0)
(0.676641 -2.21746e-06 0)
(0.67664 -2.06618e-06 0)
(0.676639 -1.79821e-06 0)
(0.676638 -1.41626e-06 0)
(0.676637 -9.23861e-07 0)
(0.676637 -3.34198e-07 0)
(0.676636 3.26593e-07 0)
(0.676635 1.02096e-06 0)
(0.676634 1.70284e-06 0)
(0.676633 2.32062e-06 0)
(0.676633 2.80658e-06 0)
(0.676632 3.08369e-06 0)
(0.716299 6.365e-07 0)
(0.716298 4.87431e-07 0)
(0.716296 1.98798e-07 0)
(0.716295 -1.18152e-07 0)
(0.716293 -4.13671e-07 0)
(0.716292 -6.67559e-07 0)
(0.71629 -8.56456e-07 0)
(0.716289 -9.58732e-07 0)
(0.716287 -9.59882e-07 0)
(0.716286 -8.51223e-07 0)
(0.716284 -6.30843e-07 0)
(0.716283 -3.01906e-07 0)
(0.716282 1.29663e-07 0)
(0.71628 6.53563e-07 0)
(0.716279 1.25093e-06 0)
(0.716278 1.89025e-06 0)
(0.716277 2.52458e-06 0)
(0.716276 3.09601e-06 0)
(0.716276 3.53657e-06 0)
(0.716275 3.78878e-06 0)
(0.74224 2.03644e-06 0)
(0.742238 1.93584e-06 0)
(0.742237 1.74809e-06 0)
(0.742235 1.52694e-06 0)
(0.742233 1.30097e-06 0)
(0.742231 1.09566e-06 0)
(0.742229 9.38803e-07 0)
(0.742227 8.44441e-07 0)
(0.742225 8.17209e-07 0)
(0.742224 8.6665e-07 0)
(0.742222 1.00492e-06 0)
(0.74222 1.23723e-06 0)
(0.742219 1.56042e-06 0)
(0.742217 1.96608e-06 0)
(0.742216 2.44034e-06 0)
(0.742215 2.95915e-06 0)
(0.742214 3.4814e-06 0)
(0.742213 3.94912e-06 0)
(0.742212 4.29936e-06 0)
(0.742211 4.4996e-06 0)
(0.755061 3.567e-06 0)
(0.755059 3.52614e-06 0)
(0.755057 3.47167e-06 0)
(0.755055 3.38706e-06 0)
(0.755053 3.26666e-06 0)
(0.755051 3.12934e-06 0)
(0.755049 3.00807e-06 0)
(0.755047 2.9195e-06 0)
(0.755045 2.86386e-06 0)
(0.755043 2.84622e-06 0)
(0.755041 2.88238e-06 0)
(0.75504 2.98731e-06 0)
(0.755038 3.16678e-06 0)
(0.755036 3.41806e-06 0)
(0.755035 3.73174e-06 0)
(0.755034 4.08948e-06 0)
(0.755033 4.45796e-06 0)
(0.755032 4.78582e-06 0)
(0.755031 5.01984e-06 0)
(0.755031 5.15381e-06 0)
(0.755059 5.05257e-06 0)
(0.755057 5.07428e-06 0)
(0.755056 5.15482e-06 0)
(0.755054 5.2077e-06 0)
(0.755052 5.19954e-06 0)
(0.75505 5.13771e-06 0)
(0.755049 5.05094e-06 0)
(0.755047 4.95914e-06 0)
(0.755045 4.86671e-06 0)
(0.755043 4.7783e-06 0)
(0.755041 4.70839e-06 0)
(0.75504 4.67656e-06 0)
(0.755038 4.69801e-06 0)
(0.755037 4.77964e-06 0)
(0.755036 4.9191e-06 0)
(0.755035 5.10322e-06 0)
(0.755034 5.30517e-06 0)
(0.755034 5.48338e-06 0)
(0.755033 5.59662e-06 0)
(0.755033 5.66535e-06 0)
(0.742235 6.30349e-06 0)
(0.742234 6.38106e-06 0)
(0.742232 6.57392e-06 0)
(0.742231 6.73263e-06 0)
(0.74223 6.80969e-06 0)
(0.742229 6.80843e-06 0)
(0.742227 6.74823e-06 0)
(0.742226 6.64585e-06 0)
(0.742224 6.51085e-06 0)
(0.742223 6.35359e-06 0)
(0.742222 6.18811e-06 0)
(0.742221 6.03324e-06 0)
(0.74222 5.90878e-06 0)
(0.742219 5.83064e-06 0)
(0.742218 5.8062e-06 0)
(0.742217 5.82948e-06 0)
(0.742217 5.87967e-06 0)
(0.742217 5.92427e-06 0)
(0.742216 5.93257e-06 0)
(0.742216 5.94637e-06 0)
(0.716291 7.14875e-06 0)
(0.71629 7.26052e-06 0)
(0.71629 7.52017e-06 0)
(0.716289 7.73416e-06 0)
(0.716288 7.85104e-06 0)
(0.716288 7.87885e-06 0)
(0.716287 7.82953e-06 0)
(0.716286 7.71301e-06 0)
(0.716286 7.53863e-06 0)
(0.716285 7.32233e-06 0)
(0.716284 7.08158e-06 0)
(0.716284 6.83409e-06 0)
(0.716283 6.59934e-06 0)
(0.716283 6.39737e-06 0)
(0.716283 6.24375e-06 0)
(0.716283 6.14125e-06 0)
(0.716283 6.07631e-06 0)
(0.716283 6.02447e-06 0)
(0.716283 5.9638e-06 0)
(0.716283 5.94136e-06 0)
(0.676638 7.46574e-06 0)
(0.676638 7.57676e-06 0)
(0.676638 7.83844e-06 0)
(0.676638 8.0475e-06 0)
(0.676638 8.157e-06 0)
(0.676638 8.18126e-06 0)
(0.676639 8.12564e-06 0)
(0.676639 7.99414e-06 0)
(0.676639 7.79282e-06 0)
(0.676639 7.53655e-06 0)
(0.676639 7.24546e-06 0)
(0.676639 6.93935e-06 0)
(0.67664 6.63782e-06 0)
(0.67664 6.36148e-06 0)
(0.67664 6.1295e-06 0)
(0.676641 5.9512e-06 0)
(0.676641 5.82046e-06 0)
(0.676642 5.72068e-06 0)
(0.676642 5.63841e-06 0)
(0.676643 5.61495e-06 0)
(0.622411 7.19786e-06 0)
(0.622412 7.26873e-06 0)
(0.622412 7.4625e-06 0)
(0.622413 7.60739e-06 0)
(0.622414 7.67036e-06 0)
(0.622415 7.6691e-06 0)
(0.622416 7.59928e-06 0)
(0.622417 7.45631e-06 0)
(0.622418 7.2452e-06 0)
(0.622418 6.97715e-06 0)
(0.622419 6.66952e-06 0)
(0.62242 6.34294e-06 0)
(0.622421 6.01876e-06 0)
(0.622422 5.71805e-06 0)
(0.622423 5.46056e-06 0)
(0.622424 5.25873e-06 0)
(0.622425 5.11261e-06 0)
(0.622425 5.01309e-06 0)
(0.622426 4.95155e-06 0)
(0.622427 4.96473e-06 0)
(0.552486 6.36492e-06 0)
(0.552487 6.36126e-06 0)
(0.552489 6.43138e-06 0)
(0.55249 6.47011e-06 0)
(0.552492 6.46322e-06 0)
(0.552493 6.42548e-06 0)
(0.552495 6.34631e-06 0)
(0.552496 6.20807e-06 0)
(0.552498 6.01176e-06 0)
(0.552499 5.76686e-06 0)
(0.552501 5.48632e-06 0)
(0.552502 5.18688e-06 0)
(0.552503 4.88809e-06 0)
(0.552505 4.6103e-06 0)
(0.552506 4.37311e-06 0)
(0.552507 4.19104e-06 0)
(0.552508 4.07021e-06 0)
(0.552509 4.01051e-06 0)
(0.55251 4.00489e-06 0)
(0.552512 4.0707e-06 0)
(0.465511 5.06199e-06 0)
(0.465513 4.9607e-06 0)
(0.465515 4.88164e-06 0)
(0.465516 4.80469e-06 0)
(0.465518 4.73336e-06 0)
(0.46552 4.65966e-06 0)
(0.465522 4.57057e-06 0)
(0.465524 4.44651e-06 0)
(0.465526 4.28376e-06 0)
(0.465527 4.08922e-06 0)
(0.465529 3.8719e-06 0)
(0.465531 3.6421e-06 0)
(0.465532 3.41276e-06 0)
(0.465534 3.19968e-06 0)
(0.465535 3.02069e-06 0)
(0.465536 2.89132e-06 0)
(0.465538 2.82296e-06 0)
(0.465539 2.82719e-06 0)
(0.46554 2.90545e-06 0)
(0.465541 3.03662e-06 0)
(0.359936 3.4557e-06 0)
(0.359938 3.24852e-06 0)
(0.35994 3.04243e-06 0)
(0.359942 2.88088e-06 0)
(0.359943 2.7771e-06 0)
(0.359945 2.70009e-06 0)
(0.359947 2.62228e-06 0)
(0.359949 2.5282e-06 0)
(0.359951 2.41491e-06 0)
(0.359952 2.28725e-06 0)
(0.359954 2.15107e-06 0)
(0.359955 2.01117e-06 0)
(0.359957 1.87305e-06 0)
(0.359958 1.74588e-06 0)
(0.359959 1.64379e-06 0)
(0.359961 1.58098e-06 0)
(0.359962 1.56868e-06 0)
(0.359963 1.62445e-06 0)
(0.359964 1.77033e-06 0)
(0.359965 1.96288e-06 0)
(0.234051 1.80402e-06 0)
(0.234053 1.5387e-06 0)
(0.234054 1.30146e-06 0)
(0.234056 1.15362e-06 0)
(0.234057 1.0749e-06 0)
(0.234059 1.03293e-06 0)
(0.23406 9.96787e-07 0)
(0.234061 9.53557e-07 0)
(0.234062 9.01027e-07 0)
(0.234064 8.42021e-07 0)
(0.234065 7.80603e-07 0)
(0.234066 7.20345e-07 0)
(0.234067 6.63856e-07 0)
(0.234068 6.1423e-07 0)
(0.234069 5.78098e-07 0)
(0.234069 5.62823e-07 0)
(0.23407 5.74627e-07 0)
(0.234071 6.36529e-07 0)
(0.234072 7.8789e-07 0)
(0.234073 9.83331e-07 0)
(0.0860287 4.96276e-07 0)
(0.0860297 3.61511e-07 0)
(0.0860306 2.54932e-07 0)
(0.0860312 2.02947e-07 0)
(0.0860318 1.79138e-07 0)
(0.0860323 1.68216e-07 0)
(0.0860329 1.59814e-07 0)
(0.0860334 1.49974e-07 0)
(0.0860339 1.37838e-07 0)
(0.0860343 1.24034e-07 0)
(0.0860347 1.1007e-07 0)
(0.086035 9.77991e-08 0)
(0.0860354 8.81062e-08 0)
(0.0860357 8.0406e-08 0)
(0.086036 7.52182e-08 0)
(0.0860363 7.49167e-08 0)
(0.0860365 8.22775e-08 0)
(0.0860368 1.09907e-07 0)
(0.0860372 1.77912e-07 0)
(0.0860378 2.65274e-07 0)
)
;

boundaryField
{
    movingWall
    {
        type            fixedValue;
        value           uniform (0 0 0);
    }
    bottomWall
    {
        type            noSlip;
    }
    leftSide
    {
        type            zeroGradient;
    }
    rightSide
    {
        type            zeroGradient;
    }
    frontAndBack
    {
        type            empty;
    }
}


// ************************************************************************* //
