/*--------------------------------*- C++ -*----------------------------------*\
| =========                 |                                                 |
| \\      /  F ield         | OpenFOAM: The Open Source CFD Toolbox           |
|  \\    /   O peration     | Version:  v2012                                 |
|   \\  /    A nd           | Website:  www.openfoam.com                      |
|    \\/     M anipulation  |                                                 |
\*---------------------------------------------------------------------------*/
FoamFile
{
    version     2.0;
    format      ascii;
    class       volScalarField;
    location    "0.2";
    object      p;
}
// * * * * * * * * * * * * * * * * * * * * * * * * * * * * * * * * * * * * * //

dimensions      [0 2 -2 0 0 0 0];


internalField   nonuniform List<scalar> 
400
(
0.975002
0.925004
0.875005
0.825006
0.775007
0.725008
0.675008
0.625008
0.575008
0.525008
0.475009
0.425009
0.375008
0.325008
0.275008
0.225007
0.175007
0.125005
0.0750028
0.0250006
0.975001
0.925003
0.875004
0.825005
0.775006
0.725007
0.675007
0.625007
0.575008
0.525008
0.475008
0.425008
0.375009
0.325009
0.275008
0.225008
0.175007
0.125005
0.0750026
0.0250005
0.975001
0.925003
0.875004
0.825005
0.775006
0.725007
0.675007
0.625007
0.575008
0.525008
0.475008
0.425008
0.375008
0.325009
0.275009
0.225008
0.175007
0.125005
0.0750022
0.0250003
0.975001
0.925003
0.875004
0.825005
0.775006
0.725007
0.675007
0.625007
0.575007
0.525008
0.475008
0.425008
0.375008
0.325008
0.275008
0.225008
0.175006
0.125004
0.0750016
0.0250001
0.975001
0.925003
0.875004
0.825005
0.775007
0.725007
0.675007
0.625007
0.575007
0.525008
0.475008
0.425008
0.375008
0.325008
0.275007
0.225007
0.175005
0.125003
0.0750012
0.0249999
0.975001
0.925003
0.875004
0.825006
0.775007
0.725007
0.675007
0.625007
0.575007
0.525008
0.475008
0.425008
0.375008
0.325008
0.275007
0.225006
0.175005
0.125003
0.0750009
0.0249998
0.975001
0.925004
0.875005
0.825006
0.775007
0.725007
0.675007
0.625007
0.575008
0.525008
0.475008
0.425008
0.375008
0.325007
0.275006
0.225005
0.175004
0.125003
0.0750007
0.0249998
0.975002
0.925004
0.875005
0.825006
0.775007
0.725007
0.675007
0.625007
0.575008
0.525008
0.475008
0.425008
0.375007
0.325007
0.275006
0.225005
0.175004
0.125002
0.0750007
0.0249999
0.975002
0.925004
0.875005
0.825006
0.775007
0.725007
0.675007
0.625007
0.575007
0.525008
0.475008
0.425008
0.375007
0.325007
0.275006
0.225005
0.175004
0.125002
0.0750007
0.025
0.975002
0.925004
0.875005
0.825006
0.775007
0.725007
0.675007
0.625007
0.575007
0.525008
0.475008
0.425008
0.375007
0.325007
0.275006
0.225005
0.175004
0.125003
0.0750008
0.025
0.975002
0.925004
0.875005
0.825006
0.775007
0.725007
0.675007
0.625007
0.575007
0.525008
0.475008
0.425008
0.375007
0.325007
0.275006
0.225005
0.175004
0.125003
0.0750009
0.0250001
0.975002
0.925004
0.875005
0.825006
0.775007
0.725007
0.675007
0.625007
0.575007
0.525008
0.475008
0.425008
0.375008
0.325007
0.275006
0.225005
0.175004
0.125003
0.075001
0.0250001
0.975002
0.925004
0.875005
0.825006
0.775007
0.725007
0.675007
0.625007
0.575007
0.525008
0.475008
0.425008
0.375007
0.325007
0.275006
0.225006
0.175004
0.125003
0.0750011
0.0250002
0.975002
0.925004
0.875005
0.825005
0.775006
0.725007
0.675007
0.625007
0.575008
0.525008
0.475008
0.425008
0.375008
0.325007
0.275007
0.225006
0.175005
0.125003
0.0750013
0.0250003
0.975002
0.925004
0.875004
0.825005
0.775006
0.725007
0.675007
0.625007
0.575008
0.525008
0.475008
0.425008
0.375008
0.325007
0.275007
0.225006
0.175005
0.125003
0.0750016
0.0250004
0.975002
0.925004
0.875004
0.825005
0.775005
0.725006
0.675007
0.625007
0.575008
0.525008
0.475008
0.425008
0.375008
0.325008
0.275007
0.225006
0.175005
0.125004
0.0750018
0.0250005
0.975002
0.925003
0.875003
0.825004
0.775005
0.725006
0.675007
0.625007
0.575008
0.525008
0.475009
0.425009
0.375008
0.325008
0.275007
0.225006
0.175005
0.125004
0.0750017
0.0250004
0.975001
0.925003
0.875003
0.825004
0.775005
0.725006
0.675007
0.625008
0.575009
0.525009
0.475009
0.42501
0.375009
0.325009
0.275008
0.225007
0.175005
0.125004
0.075002
0.0250006
0.975001
0.925003
0.875003
0.825004
0.775005
0.725006
0.675007
0.625008
0.575009
0.525009
0.47501
0.42501
0.375009
0.325009
0.275008
0.225007
0.175005
0.125004
0.0750019
0.0250006
0.975001
0.925003
0.875004
0.825004
0.775006
0.725007
0.675008
0.625009
0.575009
0.52501
0.47501
0.42501
0.37501
0.325009
0.275008
0.225007
0.175005
0.125003
0.0750017
0.0250004
)
;

boundaryField
{
    movingWall
    {
        type            zeroGradient;
    }
    bottomWall
    {
        type            zeroGradient;
    }
    leftSide
    {
        type            fixedValue;
        value           uniform 1;
    }
    rightSide
    {
        type            fixedValue;
        value           uniform 0;
    }
    frontAndBack
    {
        type            empty;
    }
}


// ************************************************************************* //
