/*--------------------------------*- C++ -*----------------------------------*\
| =========                 |                                                 |
| \\      /  F ield         | OpenFOAM: The Open Source CFD Toolbox           |
|  \\    /   O peration     | Version:  v2012                                 |
|   \\  /    A nd           | Website:  www.openfoam.com                      |
|    \\/     M anipulation  |                                                 |
\*---------------------------------------------------------------------------*/
FoamFile
{
    version     2.0;
    format      ascii;
    class       surfaceScalarField;
    location    "0.2";
    object      phi;
}
// * * * * * * * * * * * * * * * * * * * * * * * * * * * * * * * * * * * * * //

dimensions      [0 3 -1 0 0 0 0];
oriented        oriented;


internalField   nonuniform List<scalar> 
760
(
5.50474e-06
-3.72883e-12
5.50474e-06
-4.04438e-12
5.50475e-06
-5.14136e-12
5.50476e-06
-5.19297e-12
5.50476e-06
-5.32957e-12
5.50477e-06
-5.19215e-12
5.50478e-06
-4.80986e-12
5.50478e-06
-4.9161e-12
5.50478e-06
-4.2344e-12
5.50478e-06
-1.69226e-12
5.50479e-06
8.92314e-13
5.50479e-06
1.07461e-12
5.50479e-06
-9.46164e-13
5.50479e-06
-2.47111e-12
5.50479e-06
-1.66026e-12
5.50479e-06
6.87307e-13
5.50479e-06
2.74297e-12
5.50479e-06
4.18584e-12
5.50479e-06
5.90717e-12
6.72598e-12
1.52826e-05
-1.25909e-11
1.52826e-05
-1.33756e-11
1.52826e-05
-1.59214e-11
1.52827e-05
-1.73263e-11
1.52827e-05
-1.67735e-11
1.52827e-05
-1.53964e-11
1.52827e-05
-1.356e-11
1.52827e-05
-1.14917e-11
1.52827e-05
-9.46691e-12
1.52827e-05
-7.03301e-12
1.52827e-05
-3.90547e-12
1.52827e-05
-8.48958e-13
1.52827e-05
7.92601e-13
1.52827e-05
9.93903e-13
1.52827e-05
1.46618e-12
1.52827e-05
3.73793e-12
1.52827e-05
7.35483e-12
1.52827e-05
1.10701e-11
1.52827e-05
1.37448e-11
1.41164e-11
2.38651e-05
-1.75319e-11
2.38652e-05
-1.85502e-11
2.38652e-05
-1.99325e-11
2.38652e-05
-2.24925e-11
2.38652e-05
-2.38502e-11
2.38652e-05
-2.27599e-11
2.38652e-05
-1.98665e-11
2.38652e-05
-1.63323e-11
2.38652e-05
-1.31479e-11
2.38652e-05
-1.02778e-11
2.38652e-05
-6.83647e-12
2.38652e-05
-2.21079e-12
2.38652e-05
2.8494e-12
2.38652e-05
6.85889e-12
2.38652e-05
9.47723e-12
2.38652e-05
1.18791e-11
2.38652e-05
1.48883e-11
2.38652e-05
1.82002e-11
2.38652e-05
2.059e-11
2.06023e-11
3.12872e-05
-1.50449e-11
3.12872e-05
-1.83746e-11
3.12872e-05
-2.09136e-11
3.12872e-05
-2.29477e-11
3.12872e-05
-2.4392e-11
3.12872e-05
-2.43854e-11
3.12872e-05
-2.23597e-11
3.12872e-05
-1.8213e-11
3.12872e-05
-1.29808e-11
3.12872e-05
-8.31754e-12
3.12872e-05
-4.83658e-12
3.12872e-05
-1.50881e-12
3.12872e-05
3.03537e-12
3.12872e-05
8.62951e-12
3.12872e-05
1.39181e-11
3.12872e-05
1.81344e-11
3.12872e-05
2.15432e-11
3.12872e-05
2.43621e-11
3.12872e-05
2.6049e-11
2.57932e-11
3.75815e-05
-1.01915e-11
3.75815e-05
-1.39544e-11
3.75815e-05
-1.72467e-11
3.75814e-05
-1.88273e-11
3.75814e-05
-1.89103e-11
3.75814e-05
-1.80264e-11
3.75814e-05
-1.67236e-11
3.75814e-05
-1.46367e-11
3.75814e-05
-1.08546e-11
3.75814e-05
-5.61261e-12
3.75814e-05
-2.91845e-13
3.75814e-05
4.07858e-12
3.75814e-05
8.08526e-12
3.75814e-05
1.27767e-11
3.75814e-05
1.80703e-11
3.75814e-05
2.28554e-11
3.75814e-05
2.64294e-11
3.75814e-05
2.88396e-11
3.75814e-05
2.99194e-11
2.94377e-11
4.27776e-05
-3.69226e-12
4.27776e-05
-6.39009e-12
4.27776e-05
-8.87173e-12
4.27776e-05
-1.0445e-11
4.27776e-05
-1.03406e-11
4.27776e-05
-8.55471e-12
4.27776e-05
-6.07441e-12
4.27776e-05
-3.84495e-12
4.27776e-05
-1.39506e-12
4.27775e-05
2.25096e-12
4.27775e-05
7.05081e-12
4.27775e-05
1.17995e-11
4.27775e-05
1.57048e-11
4.27775e-05
1.92198e-11
4.27775e-05
2.30583e-11
4.27775e-05
2.69487e-11
4.27775e-05
3.00299e-11
4.27775e-05
3.18866e-11
4.27775e-05
3.2346e-11
3.15899e-11
4.69016e-05
5.56943e-12
4.69016e-05
4.21217e-12
4.69016e-05
3.82337e-12
4.69016e-05
3.41033e-12
4.69016e-05
3.43928e-12
4.69016e-05
4.79195e-12
4.69016e-05
7.46199e-12
4.69015e-05
1.02837e-11
4.69015e-05
1.24926e-11
4.69015e-05
1.46361e-11
4.69015e-05
1.75417e-11
4.69015e-05
2.10846e-11
4.69015e-05
2.43346e-11
4.69015e-05
2.68146e-11
4.69015e-05
2.89599e-11
4.69015e-05
3.11407e-11
4.69015e-05
3.3065e-11
4.69015e-05
3.40691e-11
4.69015e-05
3.37672e-11
3.2615e-11
4.9975e-05
1.70945e-11
4.9975e-05
1.67235e-11
4.9975e-05
1.81086e-11
4.9975e-05
1.95678e-11
4.9975e-05
2.0418e-11
4.9975e-05
2.13231e-11
4.9975e-05
2.31446e-11
4.99749e-05
2.57018e-11
4.99749e-05
2.78872e-11
4.99749e-05
2.93152e-11
4.99749e-05
3.04505e-11
4.99749e-05
3.19108e-11
4.99749e-05
3.35453e-11
4.99749e-05
3.47238e-11
4.99749e-05
3.53229e-11
4.99749e-05
3.56653e-11
4.99749e-05
3.60165e-11
4.99749e-05
3.58283e-11
4.99749e-05
3.4602e-11
3.30228e-11
5.20145e-05
2.86967e-11
5.20145e-05
2.94863e-11
5.20145e-05
3.23574e-11
5.20145e-05
3.558e-11
5.20145e-05
3.80012e-11
5.20144e-05
3.94717e-11
5.20144e-05
4.05515e-11
5.20144e-05
4.19154e-11
5.20144e-05
4.32093e-11
5.20144e-05
4.39417e-11
5.20144e-05
4.3873e-11
5.20144e-05
4.33865e-11
5.20143e-05
4.28908e-11
5.20143e-05
4.2257e-11
5.20143e-05
4.12501e-11
5.20143e-05
3.99109e-11
5.20143e-05
3.86198e-11
5.20143e-05
3.70806e-11
5.20143e-05
3.4809e-11
3.28805e-11
5.30314e-05
3.91889e-11
5.30314e-05
4.14192e-11
5.30314e-05
4.58801e-11
5.30314e-05
5.0274e-11
5.30313e-05
5.37834e-11
5.30313e-05
5.61763e-11
5.30313e-05
5.73786e-11
5.30313e-05
5.78506e-11
5.30313e-05
5.77793e-11
5.30313e-05
5.72357e-11
5.30312e-05
5.59657e-11
5.30312e-05
5.38882e-11
5.30312e-05
5.13321e-11
5.30312e-05
4.86233e-11
5.30312e-05
4.57999e-11
5.30312e-05
4.28576e-11
5.30312e-05
3.99857e-11
5.30312e-05
3.71118e-11
5.30312e-05
3.38102e-11
3.16055e-11
5.30314e-05
4.81016e-11
5.30314e-05
5.16478e-11
5.30314e-05
5.77807e-11
5.30314e-05
6.31791e-11
5.30314e-05
6.7091e-11
5.30313e-05
6.96847e-11
5.30313e-05
7.1004e-11
5.30313e-05
7.10472e-11
5.30313e-05
6.98666e-11
5.30313e-05
6.7828e-11
5.30313e-05
6.51505e-11
5.30313e-05
6.17356e-11
5.30313e-05
5.75699e-11
5.30313e-05
5.30219e-11
5.30313e-05
4.84117e-11
5.30313e-05
4.39781e-11
5.30313e-05
3.97434e-11
5.30313e-05
3.56839e-11
5.30313e-05
3.15252e-11
2.90274e-11
5.20145e-05
5.50167e-11
5.20145e-05
5.94499e-11
5.20145e-05
6.67246e-11
5.20145e-05
7.28792e-11
5.20145e-05
7.68894e-11
5.20145e-05
7.89737e-11
5.20145e-05
7.97627e-11
5.20145e-05
7.93203e-11
5.20145e-05
7.74445e-11
5.20145e-05
7.42509e-11
5.20145e-05
7.02002e-11
5.20145e-05
6.55934e-11
5.20145e-05
6.03796e-11
5.20145e-05
5.46859e-11
5.20145e-05
4.87742e-11
5.20145e-05
4.30562e-11
5.20145e-05
3.76995e-11
5.20145e-05
3.26645e-11
5.20145e-05
2.79413e-11
2.53616e-11
4.99751e-05
5.92572e-11
4.99751e-05
6.4163e-11
4.99751e-05
7.16968e-11
4.99751e-05
7.79867e-11
4.99751e-05
8.19775e-11
4.99751e-05
8.34372e-11
4.99751e-05
8.32012e-11
4.99751e-05
8.17994e-11
4.99751e-05
7.92007e-11
4.99751e-05
7.52801e-11
4.99751e-05
7.02592e-11
4.99751e-05
6.46215e-11
4.99751e-05
5.86159e-11
4.99751e-05
5.23491e-11
4.99751e-05
4.59333e-11
4.99751e-05
3.95793e-11
4.99751e-05
3.35911e-11
4.99751e-05
2.80334e-11
4.99751e-05
2.31855e-11
2.09536e-11
4.69017e-05
6.01393e-11
4.69017e-05
6.51784e-11
4.69017e-05
7.20776e-11
4.69017e-05
7.75521e-11
4.69017e-05
8.10811e-11
4.69017e-05
8.21128e-11
4.69017e-05
8.10247e-11
4.69017e-05
7.8583e-11
4.69017e-05
7.51078e-11
4.69017e-05
7.06057e-11
4.69017e-05
6.51182e-11
4.69017e-05
5.89819e-11
4.69017e-05
5.25825e-11
4.69017e-05
4.60845e-11
4.69017e-05
3.96034e-11
4.69017e-05
3.31715e-11
4.69017e-05
2.69884e-11
4.69017e-05
2.1263e-11
4.69018e-05
1.65371e-11
1.4996e-11
4.27777e-05
5.70484e-11
4.27777e-05
6.17875e-11
4.27777e-05
6.73586e-11
4.27777e-05
7.12732e-11
4.27777e-05
7.36325e-11
4.27777e-05
7.41724e-11
4.27777e-05
7.26828e-11
4.27777e-05
6.97187e-11
4.27777e-05
6.57891e-11
4.27777e-05
6.11097e-11
4.27778e-05
5.57189e-11
4.27778e-05
4.97845e-11
4.27778e-05
4.37045e-11
4.27778e-05
3.76871e-11
4.27778e-05
3.17873e-11
4.27778e-05
2.60193e-11
4.27778e-05
2.04489e-11
4.27778e-05
1.52742e-11
4.27778e-05
1.09398e-11
9.40997e-12
3.75815e-05
4.98457e-11
3.75815e-05
5.36803e-11
3.75815e-05
5.72882e-11
3.75815e-05
5.93488e-11
3.75815e-05
6.0082e-11
3.75816e-05
5.97636e-11
3.75816e-05
5.81136e-11
3.75816e-05
5.52111e-11
3.75816e-05
5.14427e-11
3.75816e-05
4.7158e-11
3.75816e-05
4.25059e-11
3.75816e-05
3.75098e-11
3.75817e-05
3.23967e-11
3.75817e-05
2.74255e-11
3.75817e-05
2.25999e-11
3.75817e-05
1.79004e-11
3.75817e-05
1.33324e-11
3.75817e-05
9.13856e-12
3.75817e-05
5.98644e-12
4.95266e-12
3.12872e-05
3.9009e-11
3.12872e-05
4.13728e-11
3.12873e-05
4.25209e-11
3.12873e-05
4.28127e-11
3.12873e-05
4.22627e-11
3.12873e-05
4.09934e-11
3.12873e-05
3.90637e-11
3.12873e-05
3.63558e-11
3.12874e-05
3.29415e-11
3.12874e-05
2.90802e-11
3.12874e-05
2.50937e-11
3.12874e-05
2.11382e-11
3.12874e-05
1.728e-11
3.12874e-05
1.36667e-11
3.12874e-05
1.02849e-11
3.12875e-05
7.10975e-12
3.12875e-05
4.09242e-12
3.12875e-05
1.09399e-12
3.12875e-05
-1.06433e-12
-1.00568e-12
2.38652e-05
2.56025e-11
2.38652e-05
2.62235e-11
2.38652e-05
2.5222e-11
2.38652e-05
2.43871e-11
2.38652e-05
2.37241e-11
2.38653e-05
2.25918e-11
2.38653e-05
2.11558e-11
2.38653e-05
1.95997e-11
2.38653e-05
1.79869e-11
2.38653e-05
1.62694e-11
2.38654e-05
1.44529e-11
2.38654e-05
1.25915e-11
2.38654e-05
1.0635e-11
2.38654e-05
8.62997e-12
2.38654e-05
6.61564e-12
2.38654e-05
4.56326e-12
2.38654e-05
2.63151e-12
2.38654e-05
7.43817e-13
2.38654e-05
-1.03039e-12
-1.6601e-12
1.52827e-05
1.1338e-11
1.52827e-05
1.09281e-11
1.52827e-05
9.15203e-12
1.52827e-05
7.60251e-12
1.52827e-05
6.77139e-12
1.52827e-05
6.27138e-12
1.52827e-05
5.89731e-12
1.52828e-05
5.55949e-12
1.52828e-05
5.23133e-12
1.52828e-05
4.82254e-12
1.52828e-05
4.23886e-12
1.52828e-05
3.62999e-12
1.52828e-05
3.05823e-12
1.52828e-05
2.34856e-12
1.52828e-05
1.54355e-12
1.52828e-05
8.53802e-13
1.52828e-05
3.57078e-13
1.52828e-05
-1.23203e-13
1.52828e-05
-7.10991e-13
-8.63095e-13
5.50476e-06
5.50476e-06
5.50477e-06
5.50478e-06
5.50478e-06
5.50479e-06
5.5048e-06
5.5048e-06
5.50481e-06
5.50481e-06
5.50482e-06
5.50482e-06
5.50482e-06
5.50483e-06
5.50483e-06
5.50483e-06
5.50483e-06
5.50483e-06
5.50483e-06
)
;

boundaryField
{
    movingWall
    {
        type            calculated;
        value           uniform 0;
    }
    bottomWall
    {
        type            calculated;
        value           uniform 0;
    }
    leftSide
    {
        type            calculated;
        value           nonuniform List<scalar> 
20
(
-5.50473e-06
-1.52826e-05
-2.38651e-05
-3.12872e-05
-3.75815e-05
-4.27776e-05
-4.69016e-05
-4.99751e-05
-5.20145e-05
-5.30314e-05
-5.30314e-05
-5.20145e-05
-4.99751e-05
-4.69017e-05
-4.27777e-05
-3.75815e-05
-3.12872e-05
-2.38652e-05
-1.52826e-05
-5.50475e-06
)
;
    }
    rightSide
    {
        type            calculated;
        value           nonuniform List<scalar> 
20
(
5.50478e-06
1.52827e-05
2.38652e-05
3.12872e-05
3.75814e-05
4.27775e-05
4.69015e-05
4.99749e-05
5.20143e-05
5.30312e-05
5.30313e-05
5.20145e-05
4.99751e-05
4.69018e-05
4.27778e-05
3.75817e-05
3.12875e-05
2.38654e-05
1.52828e-05
5.50483e-06
)
;
    }
    frontAndBack
    {
        type            empty;
        value           nonuniform List<scalar> 0();
    }
}


// ************************************************************************* //
