/*--------------------------------*- C++ -*----------------------------------*\
| =========                 |                                                 |
| \\      /  F ield         | OpenFOAM: The Open Source CFD Toolbox           |
|  \\    /   O peration     | Version:  v2012                                 |
|   \\  /    A nd           | Website:  www.openfoam.com                      |
|    \\/     M anipulation  |                                                 |
\*---------------------------------------------------------------------------*/
FoamFile
{
    version     2.0;
    format      ascii;
    class       volVectorField;
    location    "0.2";
    object      U;
}
// * * * * * * * * * * * * * * * * * * * * * * * * * * * * * * * * * * * * * //

dimensions      [0 1 -1 0 0 0 0];


internalField   nonuniform List<vector> 
400
(
(0.110095 -3.91199e-08 0)
(0.110095 -4.13052e-08 0)
(0.110095 -5.34187e-08 0)
(0.110095 -5.61821e-08 0)
(0.110095 -5.80819e-08 0)
(0.110095 -5.46187e-08 0)
(0.110095 -4.69941e-08 0)
(0.110096 -4.40047e-08 0)
(0.110096 -3.62887e-08 0)
(0.110096 -1.45921e-08 0)
(0.110096 6.25687e-09 0)
(0.110096 6.95663e-09 0)
(0.110096 -1.00327e-08 0)
(0.110096 -2.31153e-08 0)
(0.110096 -1.71848e-08 0)
(0.110096 1.21385e-09 0)
(0.110096 1.81124e-08 0)
(0.110096 3.34119e-08 0)
(0.110096 5.3436e-08 0)
(0.110096 6.42734e-08 0)
(0.305652 -1.69175e-07 0)
(0.305653 -1.792e-07 0)
(0.305653 -2.15744e-07 0)
(0.305653 -2.30438e-07 0)
(0.305653 -2.25973e-07 0)
(0.305653 -2.10079e-07 0)
(0.305653 -1.85762e-07 0)
(0.305654 -1.64024e-07 0)
(0.305654 -1.35609e-07 0)
(0.305654 -8.4825e-08 0)
(0.305654 -2.81043e-08 0)
(0.305654 1.34117e-09 0)
(0.305654 -5.64401e-09 0)
(0.305654 -2.10417e-08 0)
(0.305654 -8.927e-09 0)
(0.305654 3.67309e-08 0)
(0.305654 9.23832e-08 0)
(0.305654 1.45139e-07 0)
(0.305654 1.92101e-07 0)
(0.305654 2.06889e-07 0)
(0.477303 -3.19661e-07 0)
(0.477303 -3.42223e-07 0)
(0.477303 -3.8222e-07 0)
(0.477303 -4.21218e-07 0)
(0.477303 -4.28439e-07 0)
(0.477304 -4.02257e-07 0)
(0.477304 -3.53441e-07 0)
(0.477304 -2.95266e-07 0)
(0.477304 -2.39777e-07 0)
(0.477304 -1.82959e-07 0)
(0.477304 -1.14153e-07 0)
(0.477304 -3.60352e-08 0)
(0.477304 3.14576e-08 0)
(0.477304 7.45232e-08 0)
(0.477304 1.06772e-07 0)
(0.477304 1.54348e-07 0)
(0.477304 2.20876e-07 0)
(0.477304 2.91559e-07 0)
(0.477304 3.44192e-07 0)
(0.477304 3.49447e-07 0)
(0.625744 -3.48183e-07 0)
(0.625744 -3.93617e-07 0)
(0.625744 -4.34715e-07 0)
(0.625744 -4.80612e-07 0)
(0.625744 -5.0795e-07 0)
(0.625744 -4.96911e-07 0)
(0.625744 -4.4795e-07 0)
(0.625744 -3.70747e-07 0)
(0.625744 -2.84548e-07 0)
(0.625744 -2.05442e-07 0)
(0.625744 -1.31483e-07 0)
(0.625744 -4.77772e-08 0)
(0.625744 5.0981e-08 0)
(0.625744 1.48916e-07 0)
(0.625744 2.30011e-07 0)
(0.625744 2.9856e-07 0)
(0.625744 3.65245e-07 0)
(0.625744 4.28995e-07 0)
(0.625744 4.71847e-07 0)
(0.625744 4.70647e-07 0)
(0.751629 -2.68421e-07 0)
(0.751629 -3.39845e-07 0)
(0.751629 -4.01729e-07 0)
(0.751629 -4.41206e-07 0)
(0.751629 -4.58634e-07 0)
(0.751629 -4.50272e-07 0)
(0.751629 -4.16439e-07 0)
(0.751629 -3.53599e-07 0)
(0.751629 -2.62925e-07 0)
(0.751628 -1.62233e-07 0)
(0.751628 -7.10937e-08 0)
(0.751628 9.9107e-09 0)
(0.751628 9.88492e-08 0)
(0.751628 2.04327e-07 0)
(0.751628 3.12817e-07 0)
(0.751628 4.06334e-07 0)
(0.751628 4.80184e-07 0)
(0.751628 5.36189e-07 0)
(0.751628 5.66396e-07 0)
(0.751628 5.59919e-07 0)
(0.855553 -1.49789e-07 0)
(0.855552 -2.16459e-07 0)
(0.855552 -2.77378e-07 0)
(0.855552 -3.12404e-07 0)
(0.855552 -3.15119e-07 0)
(0.855552 -2.90114e-07 0)
(0.855552 -2.52097e-07 0)
(0.855551 -2.07308e-07 0)
(0.855551 -1.4335e-07 0)
(0.855551 -5.3503e-08 0)
(0.855551 4.86513e-08 0)
(0.855551 1.42038e-07 0)
(0.855551 2.24536e-07 0)
(0.85555 3.10349e-07 0)
(0.85555 4.05171e-07 0)
(0.85555 4.95355e-07 0)
(0.85555 5.65542e-07 0)
(0.85555 6.11422e-07 0)
(0.85555 6.28807e-07 0)
(0.85555 6.16985e-07 0)
(0.938033 9.6861e-09 0)
(0.938032 -3.24963e-08 0)
(0.938032 -6.31671e-08 0)
(0.938032 -8.51425e-08 0)
(0.938032 -8.56674e-08 0)
(0.938032 -5.56754e-08 0)
(0.938031 -4.71244e-09 0)
(0.938031 4.66922e-08 0)
(0.938031 9.52881e-08 0)
(0.93803 1.55331e-07 0)
(0.93803 2.3403e-07 0)
(0.93803 3.18282e-07 0)
(0.93803 3.91631e-07 0)
(0.93803 4.54069e-07 0)
(0.93803 5.16754e-07 0)
(0.93803 5.80216e-07 0)
(0.938029 6.32858e-07 0)
(0.938029 6.63503e-07 0)
(0.938029 6.6611e-07 0)
(0.938029 6.47167e-07 0)
(0.999501 2.21899e-07 0)
(0.999501 2.03894e-07 0)
(0.999501 2.12429e-07 0)
(0.9995 2.21847e-07 0)
(0.9995 2.3005e-07 0)
(0.9995 2.52219e-07 0)
(0.999499 2.96685e-07 0)
(0.999499 3.50523e-07 0)
(0.999499 3.95536e-07 0)
(0.999498 4.33182e-07 0)
(0.999498 4.75609e-07 0)
(0.999498 5.26995e-07 0)
(0.999498 5.76729e-07 0)
(0.999497 6.14351e-07 0)
(0.999497 6.43268e-07 0)
(0.999497 6.70144e-07 0)
(0.999497 6.9429e-07 0)
(0.999497 7.03305e-07 0)
(0.999497 6.88045e-07 0)
(0.999497 6.60565e-07 0)
(1.04029 4.58835e-07 0)
(1.04029 4.6313e-07 0)
(1.04029 5.05096e-07 0)
(1.04029 5.51535e-07 0)
(1.04029 5.84204e-07 0)
(1.04029 6.08202e-07 0)
(1.04029 6.37395e-07 0)
(1.04029 6.76537e-07 0)
(1.04029 7.1145e-07 0)
(1.04029 7.33776e-07 0)
(1.04029 7.45803e-07 0)
(1.04029 7.56857e-07 0)
(1.04029 7.68999e-07 0)
(1.04029 7.74774e-07 0)
(1.04029 7.70949e-07 0)
(1.04029 7.61362e-07 0)
(1.04029 7.52162e-07 0)
(1.04029 7.34791e-07 0)
(1.04029 6.99125e-07 0)
(1.04029 6.6353e-07 0)
(1.06063 6.84599e-07 0)
(1.06063 7.15352e-07 0)
(1.06063 7.89578e-07 0)
(1.06063 8.66517e-07 0)
(1.06063 9.26319e-07 0)
(1.06063 9.65414e-07 0)
(1.06063 9.88891e-07 0)
(1.06063 1.00758e-06 0)
(1.06063 1.01964e-06 0)
(1.06063 1.02113e-06 0)
(1.06063 1.00774e-06 0)
(1.06062 9.82591e-07 0)
(1.06062 9.52503e-07 0)
(1.06062 9.19067e-07 0)
(1.06062 8.80293e-07 0)
(1.06062 8.36865e-07 0)
(1.06062 7.94459e-07 0)
(1.06062 7.49384e-07 0)
(1.06062 6.92574e-07 0)
(1.06062 6.50353e-07 0)
(1.06063 8.82311e-07 0)
(1.06063 9.41144e-07 0)
(1.06063 1.0494e-06 0)
(1.06063 1.14956e-06 0)
(1.06063 1.22533e-06 0)
(1.06063 1.27604e-06 0)
(1.06063 1.3019e-06 0)
(1.06063 1.30743e-06 0)
(1.06063 1.29473e-06 0)
(1.06063 1.26804e-06 0)
(1.06063 1.22737e-06 0)
(1.06063 1.17157e-06 0)
(1.06063 1.10379e-06 0)
(1.06063 1.03056e-06 0)
(1.06063 9.55138e-07 0)
(1.06063 8.79929e-07 0)
(1.06063 8.07345e-07 0)
(1.06063 7.36345e-07 0)
(1.06063 6.60337e-07 0)
(1.06063 6.12307e-07 0)
(1.04029 1.04408e-06 0)
(1.04029 1.12533e-06 0)
(1.04029 1.26256e-06 0)
(1.04029 1.38135e-06 0)
(1.04029 1.4632e-06 0)
(1.04029 1.5116e-06 0)
(1.04029 1.53336e-06 0)
(1.04029 1.5294e-06 0)
(1.04029 1.49826e-06 0)
(1.04029 1.44475e-06 0)
(1.04029 1.3756e-06 0)
(1.04029 1.29326e-06 0)
(1.04029 1.19755e-06 0)
(1.04029 1.09343e-06 0)
(1.04029 9.86511e-07 0)
(1.04029 8.82938e-07 0)
(1.04029 7.84908e-07 0)
(1.04029 6.9191e-07 0)
(1.04029 6.01345e-07 0)
(1.04029 5.49529e-07 0)
(0.999502 1.159e-06 0)
(0.999502 1.25414e-06 0)
(0.999502 1.40579e-06 0)
(0.999501 1.53392e-06 0)
(0.999501 1.61696e-06 0)
(0.999501 1.65444e-06 0)
(0.999501 1.66065e-06 0)
(0.999501 1.64184e-06 0)
(0.999501 1.59582e-06 0)
(0.999501 1.52286e-06 0)
(0.999501 1.42988e-06 0)
(0.999501 1.32478e-06 0)
(0.999501 1.20983e-06 0)
(0.999501 1.08759e-06 0)
(0.999501 9.61949e-07 0)
(0.999501 8.38919e-07 0)
(0.999501 7.23034e-07 0)
(0.999501 6.14923e-07 0)
(0.999502 5.17387e-07 0)
(0.999502 4.68514e-07 0)
(0.938034 1.2129e-06 0)
(0.938033 1.31442e-06 0)
(0.938034 1.46242e-06 0)
(0.938034 1.58358e-06 0)
(0.938034 1.66138e-06 0)
(0.938034 1.68795e-06 0)
(0.938034 1.67503e-06 0)
(0.938034 1.63572e-06 0)
(0.938034 1.57314e-06 0)
(0.938034 1.48637e-06 0)
(0.938034 1.37845e-06 0)
(0.938034 1.25775e-06 0)
(0.938034 1.13075e-06 0)
(0.938034 1.00022e-06 0)
(0.938034 8.68459e-07 0)
(0.938035 7.381e-07 0)
(0.938035 6.13956e-07 0)
(0.938035 4.98924e-07 0)
(0.938035 4.0144e-07 0)
(0.938035 3.6274e-07 0)
(0.855553 1.19216e-06 0)
(0.855553 1.29215e-06 0)
(0.855554 1.42017e-06 0)
(0.855554 1.51675e-06 0)
(0.855554 1.5771e-06 0)
(0.855554 1.59344e-06 0)
(0.855554 1.56739e-06 0)
(0.855554 1.51199e-06 0)
(0.855555 1.43586e-06 0)
(0.855555 1.34146e-06 0)
(0.855555 1.22984e-06 0)
(0.855555 1.10617e-06 0)
(0.855555 9.78399e-07 0)
(0.855556 8.50429e-07 0)
(0.855556 7.23834e-07 0)
(0.855556 5.99146e-07 0)
(0.855556 4.79153e-07 0)
(0.855556 3.6803e-07 0)
(0.855556 2.75957e-07 0)
(0.855557 2.4392e-07 0)
(0.75163 1.08868e-06 0)
(0.75163 1.1763e-06 0)
(0.75163 1.27007e-06 0)
(0.751631 1.33076e-06 0)
(0.751631 1.36173e-06 0)
(0.751631 1.36343e-06 0)
(0.751631 1.33135e-06 0)
(0.751632 1.27154e-06 0)
(0.751632 1.19288e-06 0)
(0.751632 1.10116e-06 0)
(0.751633 9.98447e-07 0)
(0.751633 8.86776e-07 0)
(0.751633 7.72285e-07 0)
(0.751633 6.5975e-07 0)
(0.751634 5.49916e-07 0)
(0.751634 4.42712e-07 0)
(0.751634 3.39045e-07 0)
(0.751634 2.4322e-07 0)
(0.751634 1.6676e-07 0)
(0.751634 1.40415e-07 0)
(0.625745 9.0399e-07 0)
(0.625745 9.66783e-07 0)
(0.625745 1.01387e-06 0)
(0.625745 1.03559e-06 0)
(0.625746 1.0356e-06 0)
(0.625746 1.01799e-06 0)
(0.625746 9.80654e-07 0)
(0.625747 9.23294e-07 0)
(0.625747 8.50333e-07 0)
(0.625748 7.67642e-07 0)
(0.625748 6.79739e-07 0)
(0.625748 5.885e-07 0)
(0.625748 4.96938e-07 0)
(0.625749 4.09137e-07 0)
(0.625749 3.2519e-07 0)
(0.625749 2.44573e-07 0)
(0.625749 1.6707e-07 0)
(0.625749 9.39258e-08 0)
(0.625749 3.99022e-08 0)
(0.62575 3.0754e-08 0)
(0.477304 6.51253e-07 0)
(0.477304 6.79935e-07 0)
(0.477304 6.77775e-07 0)
(0.477304 6.68063e-07 0)
(0.477305 6.52536e-07 0)
(0.477305 6.26142e-07 0)
(0.477305 5.90651e-07 0)
(0.477306 5.46686e-07 0)
(0.477306 4.95617e-07 0)
(0.477307 4.39568e-07 0)
(0.477307 3.81434e-07 0)
(0.477307 3.22959e-07 0)
(0.477307 2.64443e-07 0)
(0.477308 2.0771e-07 0)
(0.477308 1.53134e-07 0)
(0.477308 1.00436e-07 0)
(0.477308 5.07013e-08 0)
(0.477308 2.14198e-09 0)
(0.477308 -3.59827e-08 0)
(0.477308 -4.03266e-08 0)
(0.305653 3.6347e-07 0)
(0.305653 3.61122e-07 0)
(0.305654 3.26709e-07 0)
(0.305654 2.97311e-07 0)
(0.305654 2.79052e-07 0)
(0.305654 2.60971e-07 0)
(0.305655 2.4211e-07 0)
(0.305655 2.23327e-07 0)
(0.305655 2.04873e-07 0)
(0.305655 1.85024e-07 0)
(0.305656 1.62744e-07 0)
(0.305656 1.39944e-07 0)
(0.305656 1.1646e-07 0)
(0.305656 9.09945e-08 0)
(0.305656 6.42827e-08 0)
(0.305657 3.85132e-08 0)
(0.305657 1.59326e-08 0)
(0.305657 -6.21063e-09 0)
(0.305657 -2.79622e-08 0)
(0.305657 -3.41349e-08 0)
(0.110095 1.05943e-07 0)
(0.110095 9.92428e-08 0)
(0.110095 7.84125e-08 0)
(0.110095 6.08165e-08 0)
(0.110096 5.1718e-08 0)
(0.110096 4.65313e-08 0)
(0.110096 4.29763e-08 0)
(0.110096 3.9988e-08 0)
(0.110096 3.74398e-08 0)
(0.110096 3.44395e-08 0)
(0.110096 2.9842e-08 0)
(0.110096 2.49532e-08 0)
(0.110096 2.01877e-08 0)
(0.110097 1.38805e-08 0)
(0.110097 6.66555e-09 0)
(0.110097 6.32944e-10 0)
(0.110097 -3.26637e-09 0)
(0.110097 -7.18775e-09 0)
(0.110097 -1.22751e-08 0)
(0.110097 -1.27338e-08 0)
)
;

boundaryField
{
    movingWall
    {
        type            fixedValue;
        value           uniform (0 0 0);
    }
    bottomWall
    {
        type            noSlip;
    }
    leftSide
    {
        type            zeroGradient;
    }
    rightSide
    {
        type            zeroGradient;
    }
    frontAndBack
    {
        type            empty;
    }
}


// ************************************************************************* //
