/*--------------------------------*- C++ -*----------------------------------*\
| =========                 |                                                 |
| \\      /  F ield         | OpenFOAM: The Open Source CFD Toolbox           |
|  \\    /   O peration     | Version:  v2012                                 |
|   \\  /    A nd           | Website:  www.openfoam.com                      |
|    \\/     M anipulation  |                                                 |
\*---------------------------------------------------------------------------*/
FoamFile
{
    version     2.0;
    format      ascii;
    class       volScalarField;
    location    "0.3";
    object      p;
}
// * * * * * * * * * * * * * * * * * * * * * * * * * * * * * * * * * * * * * //

dimensions      [0 2 -2 0 0 0 0];


internalField   nonuniform List<scalar> 
400
(
0.975002
0.925004
0.875005
0.825005
0.775005
0.725004
0.675003
0.625003
0.575002
0.525001
0.475
0.424999
0.374998
0.324997
0.274996
0.224995
0.174995
0.124996
0.0749972
0.0249988
0.975001
0.925003
0.875004
0.825004
0.775004
0.725004
0.675003
0.625002
0.575002
0.525001
0.475
0.424999
0.374998
0.324997
0.274996
0.224996
0.174996
0.124996
0.0749973
0.0249988
0.975002
0.925003
0.875004
0.825004
0.775004
0.725004
0.675003
0.625002
0.575002
0.525001
0.475001
0.424999
0.374998
0.324997
0.274996
0.224996
0.174996
0.124997
0.0749972
0.0249987
0.975002
0.925004
0.875004
0.825004
0.775004
0.725004
0.675003
0.625002
0.575002
0.525001
0.475001
0.425
0.374999
0.324997
0.274997
0.224996
0.174996
0.124997
0.0749971
0.0249987
0.975002
0.925004
0.875004
0.825004
0.775004
0.725004
0.675003
0.625003
0.575002
0.525002
0.475001
0.425
0.374999
0.324998
0.274998
0.224997
0.174997
0.124997
0.0749972
0.0249986
0.975002
0.925004
0.875005
0.825005
0.775004
0.725004
0.675003
0.625003
0.575003
0.525002
0.475002
0.425001
0.375
0.324999
0.274998
0.224998
0.174998
0.124997
0.0749973
0.0249987
0.975002
0.925004
0.875005
0.825005
0.775005
0.725005
0.675004
0.625003
0.575003
0.525003
0.475003
0.425002
0.375001
0.325
0.274999
0.224999
0.174998
0.124998
0.0749975
0.0249987
0.975002
0.925005
0.875005
0.825005
0.775005
0.725005
0.675004
0.625004
0.575004
0.525004
0.475004
0.425003
0.375002
0.325001
0.275001
0.225
0.174999
0.124998
0.0749977
0.0249988
0.975002
0.925005
0.875005
0.825005
0.775005
0.725005
0.675005
0.625005
0.575005
0.525005
0.475005
0.425004
0.375004
0.325003
0.275002
0.225001
0.175
0.124999
0.074998
0.0249989
0.975002
0.925005
0.875006
0.825006
0.775006
0.725006
0.675006
0.625006
0.575006
0.525006
0.475006
0.425005
0.375005
0.325004
0.275002
0.225001
0.175
0.124999
0.0749983
0.024999
0.975002
0.925005
0.875006
0.825006
0.775007
0.725007
0.675007
0.625007
0.575007
0.525007
0.475007
0.425006
0.375005
0.325004
0.275003
0.225002
0.175001
0.125
0.0749985
0.0249991
0.975002
0.925005
0.875006
0.825007
0.775007
0.725008
0.675008
0.625008
0.575008
0.525008
0.475008
0.425007
0.375006
0.325005
0.275004
0.225003
0.175001
0.125
0.0749987
0.0249992
0.975002
0.925006
0.875007
0.825008
0.775008
0.725009
0.675009
0.625009
0.575009
0.525009
0.475009
0.425008
0.375007
0.325006
0.275004
0.225003
0.175002
0.125
0.074999
0.0249993
0.975002
0.925006
0.875007
0.825008
0.775009
0.72501
0.67501
0.62501
0.57501
0.52501
0.475009
0.425009
0.375007
0.325006
0.275005
0.225003
0.175002
0.125
0.0749992
0.0249994
0.975002
0.925006
0.875008
0.825009
0.77501
0.725011
0.675011
0.625011
0.575011
0.52501
0.47501
0.425009
0.375008
0.325006
0.275005
0.225004
0.175002
0.125001
0.0749995
0.0249996
0.975002
0.925006
0.875008
0.825009
0.77501
0.725011
0.675011
0.625012
0.575011
0.525011
0.47501
0.425009
0.375008
0.325007
0.275005
0.225004
0.175002
0.125001
0.0749997
0.0249997
0.975002
0.925006
0.875008
0.825009
0.775011
0.725012
0.675012
0.625012
0.575012
0.525011
0.475011
0.42501
0.375008
0.325007
0.275006
0.225004
0.175003
0.125001
0.075
0.0249998
0.975002
0.925006
0.875008
0.82501
0.775011
0.725012
0.675013
0.625013
0.575012
0.525012
0.475011
0.42501
0.375009
0.325007
0.275006
0.225004
0.175003
0.125001
0.0750002
0.0249999
0.975002
0.925006
0.875008
0.82501
0.775011
0.725013
0.675013
0.625013
0.575013
0.525012
0.475011
0.42501
0.375009
0.325007
0.275006
0.225004
0.175003
0.125001
0.0750004
0.025
0.975003
0.925006
0.875009
0.825011
0.775012
0.725013
0.675014
0.625014
0.575013
0.525013
0.475012
0.425011
0.375009
0.325008
0.275006
0.225005
0.175003
0.125002
0.0750005
0.0250001
)
;

boundaryField
{
    movingWall
    {
        type            zeroGradient;
    }
    bottomWall
    {
        type            zeroGradient;
    }
    leftSide
    {
        type            fixedValue;
        value           uniform 1;
    }
    rightSide
    {
        type            fixedValue;
        value           uniform 0;
    }
    frontAndBack
    {
        type            empty;
    }
}


// ************************************************************************* //
