/*--------------------------------*- C++ -*----------------------------------*\
| =========                 |                                                 |
| \\      /  F ield         | OpenFOAM: The Open Source CFD Toolbox           |
|  \\    /   O peration     | Version:  v2012                                 |
|   \\  /    A nd           | Website:  www.openfoam.com                      |
|    \\/     M anipulation  |                                                 |
\*---------------------------------------------------------------------------*/
FoamFile
{
    version     2.0;
    format      ascii;
    class       surfaceScalarField;
    location    "0.3";
    object      phi;
}
// * * * * * * * * * * * * * * * * * * * * * * * * * * * * * * * * * * * * * //

dimensions      [0 3 -1 0 0 0 0];
oriented        oriented;


internalField   nonuniform List<scalar> 
760
(
5.96445e-06
-7.44939e-12
5.96445e-06
-7.59678e-12
5.96446e-06
-9.19922e-12
5.96447e-06
-1.11879e-11
5.96448e-06
-1.08645e-11
5.96449e-06
-9.56036e-12
5.9645e-06
-8.4744e-12
5.96451e-06
-7.62296e-12
5.96451e-06
-7.46897e-12
5.96452e-06
-7.09591e-12
5.96452e-06
-5.24877e-12
5.96452e-06
-2.24611e-12
5.96452e-06
3.58253e-13
5.96452e-06
1.54474e-12
5.96452e-06
1.80673e-12
5.96452e-06
2.26932e-12
5.96451e-06
3.55732e-12
5.9645e-06
5.51081e-12
5.9645e-06
7.42385e-12
7.97132e-12
1.66505e-05
-1.77277e-11
1.66505e-05
-2.10914e-11
1.66505e-05
-2.21976e-11
1.66505e-05
-2.27641e-11
1.66505e-05
-2.33507e-11
1.66505e-05
-2.27807e-11
1.66505e-05
-2.11955e-11
1.66505e-05
-1.84301e-11
1.66505e-05
-1.50137e-11
1.66506e-05
-1.2178e-11
1.66506e-05
-1.00194e-11
1.66506e-05
-7.37954e-12
1.66506e-05
-3.61043e-12
1.66506e-05
7.41393e-13
1.66506e-05
4.42962e-12
1.66506e-05
7.21913e-12
1.66505e-05
1.00195e-11
1.66505e-05
1.33642e-11
1.66505e-05
1.6165e-11
1.63536e-11
2.61074e-05
-2.06767e-11
2.61074e-05
-2.64616e-11
2.61074e-05
-3.07172e-11
2.61075e-05
-3.22291e-11
2.61075e-05
-3.28884e-11
2.61075e-05
-3.23793e-11
2.61075e-05
-3.03632e-11
2.61075e-05
-2.67886e-11
2.61075e-05
-2.18335e-11
2.61075e-05
-1.65676e-11
2.61075e-05
-1.20979e-11
2.61075e-05
-8.47603e-12
2.61075e-05
-4.74616e-12
2.61075e-05
-3.33304e-14
2.61075e-05
5.45416e-12
2.61075e-05
1.07229e-11
2.61075e-05
1.52711e-11
2.61075e-05
1.9397e-11
2.61075e-05
2.24583e-11
2.2602e-11
3.43487e-05
-2.08695e-11
3.43487e-05
-2.6361e-11
3.43487e-05
-3.2054e-11
3.43487e-05
-3.48376e-11
3.43487e-05
-3.53059e-11
3.43487e-05
-3.42833e-11
3.43487e-05
-3.22876e-11
3.43487e-05
-2.94564e-11
3.43487e-05
-2.52372e-11
3.43487e-05
-1.95714e-11
3.43487e-05
-1.33932e-11
3.43487e-05
-7.87883e-12
3.43487e-05
-3.1868e-12
3.43487e-05
1.51957e-12
3.43487e-05
7.03788e-12
3.43487e-05
1.31654e-11
3.43487e-05
1.89257e-11
3.43487e-05
2.3698e-11
3.43487e-05
2.67305e-11
2.68837e-11
4.13868e-05
-1.8359e-11
4.13868e-05
-2.35736e-11
4.13868e-05
-2.91714e-11
4.13868e-05
-3.23791e-11
4.13868e-05
-3.29952e-11
4.13868e-05
-3.13888e-11
4.13868e-05
-2.82511e-11
4.13868e-05
-2.47123e-11
4.13868e-05
-2.10993e-11
4.13868e-05
-1.68621e-11
4.13868e-05
-1.1454e-11
4.13868e-05
-5.37794e-12
4.13868e-05
4.10339e-13
4.13868e-05
5.58843e-12
4.13868e-05
1.06992e-11
4.13868e-05
1.62743e-11
4.13868e-05
2.19043e-11
4.13868e-05
2.66223e-11
4.13868e-05
2.94001e-11
2.95572e-11
4.72332e-05
-1.13718e-11
4.72332e-05
-1.56791e-11
4.72332e-05
-1.97721e-11
4.72331e-05
-2.20331e-11
4.72331e-05
-2.27088e-11
4.72331e-05
-2.19743e-11
4.72331e-05
-1.95728e-11
4.72331e-05
-1.60122e-11
4.72331e-05
-1.21628e-11
4.72331e-05
-8.45408e-12
4.72331e-05
-4.39436e-12
4.72331e-05
4.18266e-13
4.72331e-05
5.6781e-12
4.72331e-05
1.0783e-11
4.72331e-05
1.55554e-11
4.72331e-05
2.03073e-11
4.7233e-05
2.50275e-11
4.7233e-05
2.89594e-11
4.7233e-05
3.11273e-11
3.12189e-11
5.18976e-05
-1.15044e-12
5.18976e-05
-3.90191e-12
5.18976e-05
-6.33559e-12
5.18976e-05
-7.44025e-12
5.18976e-05
-7.40772e-12
5.18976e-05
-6.86658e-12
5.18976e-05
-5.50825e-12
5.18975e-05
-2.98883e-12
5.18975e-05
3.778e-13
5.18975e-05
3.79746e-12
5.18975e-05
6.98998e-12
5.18975e-05
1.02293e-11
5.18975e-05
1.37876e-11
5.18975e-05
1.76365e-11
5.18975e-05
2.14293e-11
5.18975e-05
2.50203e-11
5.18975e-05
2.84381e-11
5.18975e-05
3.11396e-11
5.18975e-05
3.23826e-11
3.23095e-11
5.53885e-05
1.06702e-11
5.53885e-05
9.62714e-12
5.53885e-05
9.05513e-12
5.53884e-05
9.07613e-12
5.53884e-05
9.98834e-12
5.53884e-05
1.11885e-11
5.53884e-05
1.23556e-11
5.53884e-05
1.39294e-11
5.53884e-05
1.60607e-11
5.53883e-05
1.84249e-11
5.53883e-05
2.05719e-11
5.53883e-05
2.23813e-11
5.53883e-05
2.40639e-11
5.53883e-05
2.59933e-11
5.53883e-05
2.81567e-11
5.53883e-05
3.01608e-11
5.53883e-05
3.19537e-11
5.53883e-05
3.31812e-11
5.53883e-05
3.33074e-11
3.29147e-11
5.77121e-05
2.3038e-11
5.77121e-05
2.34061e-11
5.77121e-05
2.48999e-11
5.77121e-05
2.63489e-11
5.7712e-05
2.79618e-11
5.7712e-05
2.97567e-11
5.7712e-05
3.11515e-11
5.7712e-05
3.22681e-11
5.7712e-05
3.32265e-11
5.77119e-05
3.4113e-11
5.77119e-05
3.48045e-11
5.77119e-05
3.5095e-11
5.77119e-05
3.50109e-11
5.77119e-05
3.48582e-11
5.77119e-05
3.49679e-11
5.77119e-05
3.50769e-11
5.77119e-05
3.50812e-11
5.77119e-05
3.47837e-11
5.77119e-05
3.38097e-11
3.29621e-11
5.88728e-05
3.4912e-11
5.88728e-05
3.6486e-11
5.88728e-05
3.98967e-11
5.88728e-05
4.31162e-11
5.88728e-05
4.56264e-11
5.88727e-05
4.77575e-11
5.88727e-05
4.91483e-11
5.88727e-05
4.98141e-11
5.88727e-05
4.97431e-11
5.88727e-05
4.91145e-11
5.88727e-05
4.81857e-11
5.88726e-05
4.68607e-11
5.88726e-05
4.50865e-11
5.88726e-05
4.29781e-11
5.88726e-05
4.09551e-11
5.88726e-05
3.90715e-11
5.88726e-05
3.7293e-11
5.88726e-05
3.5498e-11
5.88726e-05
3.35494e-11
3.22978e-11
5.88728e-05
4.5285e-11
5.88728e-05
4.82606e-11
5.88728e-05
5.32117e-11
5.88728e-05
5.78772e-11
5.88728e-05
6.13765e-11
5.88728e-05
6.37715e-11
5.88728e-05
6.49139e-11
5.88727e-05
6.49673e-11
5.88727e-05
6.39746e-11
5.88727e-05
6.19663e-11
5.88727e-05
5.93545e-11
5.88727e-05
5.63326e-11
5.88727e-05
5.2931e-11
5.88727e-05
4.91608e-11
5.88727e-05
4.5283e-11
5.88727e-05
4.15556e-11
5.88727e-05
3.81543e-11
5.88727e-05
3.49826e-11
5.88727e-05
3.21479e-11
3.06264e-11
5.77122e-05
5.33524e-11
5.77122e-05
5.7875e-11
5.77121e-05
6.413e-11
5.77121e-05
6.96284e-11
5.77121e-05
7.3841e-11
5.77121e-05
7.64341e-11
5.77121e-05
7.71776e-11
5.77121e-05
7.63578e-11
5.77121e-05
7.43171e-11
5.77121e-05
7.11105e-11
5.77121e-05
6.70024e-11
5.77121e-05
6.23595e-11
5.77121e-05
5.7417e-11
5.7712e-05
5.22925e-11
5.7712e-05
4.70564e-11
5.7712e-05
4.18786e-11
5.7712e-05
3.71063e-11
5.77121e-05
3.28318e-11
5.77121e-05
2.93519e-11
2.77526e-11
5.53886e-05
5.85667e-11
5.53886e-05
6.43595e-11
5.53886e-05
7.16921e-11
5.53886e-05
7.74271e-11
5.53886e-05
8.16684e-11
5.53885e-05
8.41226e-11
5.53885e-05
8.44235e-11
5.53885e-05
8.2775e-11
5.53885e-05
7.96449e-11
5.53885e-05
7.5353e-11
5.53885e-05
7.00968e-11
5.53885e-05
6.42004e-11
5.53885e-05
5.79586e-11
5.53885e-05
5.16552e-11
5.53885e-05
4.54013e-11
5.53885e-05
3.92702e-11
5.53885e-05
3.35556e-11
5.53885e-05
2.85606e-11
5.53885e-05
2.47968e-11
2.34269e-11
5.18977e-05
6.0178e-11
5.18977e-05
6.65693e-11
5.18977e-05
7.4469e-11
5.18977e-05
8.00548e-11
5.18977e-05
8.37162e-11
5.18977e-05
8.55423e-11
5.18977e-05
8.52796e-11
5.18977e-05
8.30787e-11
5.18977e-05
7.92607e-11
5.18977e-05
7.42241e-11
5.18978e-05
6.82386e-11
5.18978e-05
6.16253e-11
5.18978e-05
5.46677e-11
5.18978e-05
4.76606e-11
5.18978e-05
4.07599e-11
5.18978e-05
3.40811e-11
5.18978e-05
2.78698e-11
5.18978e-05
2.25164e-11
5.18978e-05
1.87164e-11
1.77931e-11
4.72333e-05
5.76612e-11
4.72333e-05
6.39401e-11
4.72333e-05
7.14207e-11
4.72333e-05
7.63511e-11
4.72333e-05
7.90681e-11
4.72333e-05
7.98491e-11
4.72333e-05
7.87553e-11
4.72333e-05
7.61001e-11
4.72333e-05
7.21115e-11
4.72334e-05
6.7042e-11
4.72334e-05
6.10954e-11
4.72334e-05
5.45308e-11
4.72334e-05
4.76263e-11
4.72334e-05
4.06732e-11
4.72334e-05
3.38232e-11
4.72334e-05
2.72006e-11
4.72334e-05
2.10964e-11
4.72334e-05
1.59486e-11
4.72334e-05
1.25021e-11
1.21393e-11
4.1387e-05
5.07735e-11
4.1387e-05
5.63432e-11
4.1387e-05
6.22378e-11
4.1387e-05
6.57442e-11
4.1387e-05
6.74058e-11
4.1387e-05
6.72577e-11
4.1387e-05
6.53475e-11
4.1387e-05
6.217e-11
4.13871e-05
5.80316e-11
4.13871e-05
5.31299e-11
4.13871e-05
4.76148e-11
4.13871e-05
4.16593e-11
4.13871e-05
3.5503e-11
4.13871e-05
2.94506e-11
4.13871e-05
2.36887e-11
4.13871e-05
1.82036e-11
4.13871e-05
1.3104e-11
4.13872e-05
8.78825e-12
4.13872e-05
6.15972e-12
6.65443e-12
3.43488e-05
3.97767e-11
3.43488e-05
4.40118e-11
3.43489e-05
4.77019e-11
3.43489e-05
4.93268e-11
3.43489e-05
4.98929e-11
3.43489e-05
4.96145e-11
3.43489e-05
4.82145e-11
3.43489e-05
4.58439e-11
3.4349e-05
4.25754e-11
3.4349e-05
3.84848e-11
3.4349e-05
3.37876e-11
3.4349e-05
2.87872e-11
3.4349e-05
2.37788e-11
3.4349e-05
1.89603e-11
3.4349e-05
1.44056e-11
3.4349e-05
1.00376e-11
3.43491e-05
5.93989e-12
3.43491e-05
2.47611e-12
3.43491e-05
5.92458e-13
1.61828e-12
2.61075e-05
2.57003e-11
2.61075e-05
2.78362e-11
2.61075e-05
2.97416e-11
2.61076e-05
3.08148e-11
2.61076e-05
3.11984e-11
2.61076e-05
3.0985e-11
2.61076e-05
2.98994e-11
2.61076e-05
2.80779e-11
2.61077e-05
2.56741e-11
2.61077e-05
2.27272e-11
2.61077e-05
1.93269e-11
2.61077e-05
1.57273e-11
2.61077e-05
1.2274e-11
2.61077e-05
9.15416e-12
2.61077e-05
6.29069e-12
2.61078e-05
3.43734e-12
2.61078e-05
7.30804e-13
2.61078e-05
-1.42146e-12
2.61078e-05
-2.50448e-12
-1.67332e-12
1.66505e-05
1.0756e-11
1.66505e-05
1.073e-11
1.66505e-05
1.0732e-11
1.66506e-05
1.07306e-11
1.66506e-05
1.05477e-11
1.66506e-05
1.04512e-11
1.66506e-05
1.02438e-11
1.66506e-05
9.6265e-12
1.66507e-05
8.45081e-12
1.66507e-05
6.93137e-12
1.66507e-05
5.48952e-12
1.66507e-05
4.361e-12
1.66507e-05
3.35655e-12
1.66507e-05
2.1705e-12
1.66507e-05
9.08289e-13
1.66507e-05
-3.60153e-13
1.66507e-05
-1.6444e-12
1.66507e-05
-2.4292e-12
1.66507e-05
-2.49225e-12
-1.71338e-12
5.96446e-06
5.96447e-06
5.96448e-06
5.96449e-06
5.96451e-06
5.96452e-06
5.96453e-06
5.96454e-06
5.96455e-06
5.96455e-06
5.96456e-06
5.96457e-06
5.96457e-06
5.96457e-06
5.96457e-06
5.96457e-06
5.96457e-06
5.96457e-06
5.96457e-06
)
;

boundaryField
{
    movingWall
    {
        type            calculated;
        value           uniform 0;
    }
    bottomWall
    {
        type            calculated;
        value           uniform 0;
    }
    leftSide
    {
        type            calculated;
        value           nonuniform List<scalar> 
20
(
-5.96444e-06
-1.66504e-05
-2.61074e-05
-3.43487e-05
-4.13868e-05
-4.72332e-05
-5.18976e-05
-5.53885e-05
-5.77121e-05
-5.88728e-05
-5.88729e-05
-5.77122e-05
-5.53886e-05
-5.18977e-05
-4.72333e-05
-4.1387e-05
-3.43488e-05
-2.61075e-05
-1.66505e-05
-5.96445e-06
)
;
    }
    rightSide
    {
        type            calculated;
        value           nonuniform List<scalar> 
20
(
5.96449e-06
1.66505e-05
2.61075e-05
3.43487e-05
4.13868e-05
4.7233e-05
5.18975e-05
5.53883e-05
5.77119e-05
5.88726e-05
5.88727e-05
5.77121e-05
5.53885e-05
5.18978e-05
4.72334e-05
4.13872e-05
3.43491e-05
2.61078e-05
1.66507e-05
5.96457e-06
)
;
    }
    frontAndBack
    {
        type            empty;
        value           nonuniform List<scalar> 0();
    }
}


// ************************************************************************* //
