/*--------------------------------*- C++ -*----------------------------------*\
| =========                 |                                                 |
| \\      /  F ield         | OpenFOAM: The Open Source CFD Toolbox           |
|  \\    /   O peration     | Version:  v2012                                 |
|   \\  /    A nd           | Website:  www.openfoam.com                      |
|    \\/     M anipulation  |                                                 |
\*---------------------------------------------------------------------------*/
FoamFile
{
    version     2.0;
    format      ascii;
    class       volVectorField;
    location    "0.3";
    object      U;
}
// * * * * * * * * * * * * * * * * * * * * * * * * * * * * * * * * * * * * * //

dimensions      [0 1 -1 0 0 0 0];


internalField   nonuniform List<vector> 
400
(
(0.119289 -7.59714e-08 0)
(0.119289 -8.08951e-08 0)
(0.119289 -9.76334e-08 0)
(0.119289 -1.14666e-07 0)
(0.11929 -1.1062e-07 0)
(0.11929 -9.76895e-08 0)
(0.11929 -8.58466e-08 0)
(0.11929 -7.67164e-08 0)
(0.11929 -7.49918e-08 0)
(0.11929 -7.16979e-08 0)
(0.11929 -5.39663e-08 0)
(0.11929 -2.4658e-08 0)
(0.11929 1.20733e-09 0)
(0.11929 1.33253e-08 0)
(0.11929 1.56376e-08 0)
(0.11929 2.05604e-08 0)
(0.11929 3.48143e-08 0)
(0.11929 5.57393e-08 0)
(0.11929 7.56162e-08 0)
(0.11929 8.09044e-08 0)
(0.333009 -2.60291e-07 0)
(0.333009 -2.95098e-07 0)
(0.333009 -3.23185e-07 0)
(0.33301 -3.51064e-07 0)
(0.33301 -3.51983e-07 0)
(0.33301 -3.30896e-07 0)
(0.333011 -3.02308e-07 0)
(0.333011 -2.64614e-07 0)
(0.333011 -2.29077e-07 0)
(0.333011 -1.98471e-07 0)
(0.333011 -1.58623e-07 0)
(0.333011 -1.01371e-07 0)
(0.333011 -3.53335e-08 0)
(0.333011 2.09436e-08 0)
(0.333011 5.88261e-08 0)
(0.333011 9.03382e-08 0)
(0.333011 1.32635e-07 0)
(0.333011 1.88506e-07 0)
(0.333011 2.38398e-07 0)
(0.333011 2.47458e-07 0)
(0.522149 -4.02375e-07 0)
(0.522149 -4.98104e-07 0)
(0.522149 -5.55575e-07 0)
(0.522149 -5.76788e-07 0)
(0.522149 -5.89246e-07 0)
(0.522149 -5.76808e-07 0)
(0.52215 -5.3833e-07 0)
(0.52215 -4.72099e-07 0)
(0.52215 -3.84741e-07 0)
(0.52215 -3.00502e-07 0)
(0.52215 -2.32231e-07 0)
(0.52215 -1.68846e-07 0)
(0.52215 -9.14858e-08 0)
(0.52215 2.45318e-09 0)
(0.52215 9.7623e-08 0)
(0.52215 1.81151e-07 0)
(0.52215 2.56857e-07 0)
(0.52215 3.3331e-07 0)
(0.52215 3.93823e-07 0)
(0.522149 3.97447e-07 0)
(0.686974 -4.38339e-07 0)
(0.686974 -5.54436e-07 0)
(0.686975 -6.58095e-07 0)
(0.686975 -7.02892e-07 0)
(0.686975 -7.13843e-07 0)
(0.686975 -6.97615e-07 0)
(0.686975 -6.56303e-07 0)
(0.686975 -5.906e-07 0)
(0.686975 -4.96018e-07 0)
(0.686975 -3.82578e-07 0)
(0.686975 -2.71592e-07 0)
(0.686975 -1.76299e-07 0)
(0.686975 -8.85619e-08 0)
(0.686975 9.19139e-09 0)
(0.686975 1.22727e-07 0)
(0.686975 2.39924e-07 0)
(0.686975 3.46209e-07 0)
(0.686974 4.38035e-07 0)
(0.686974 5.00746e-07 0)
(0.686974 5.04237e-07 0)
(0.827737 -4.12583e-07 0)
(0.827737 -5.22639e-07 0)
(0.827737 -6.39225e-07 0)
(0.827737 -7.01879e-07 0)
(0.827737 -7.14224e-07 0)
(0.827737 -6.88429e-07 0)
(0.827737 -6.36693e-07 0)
(0.827736 -5.71842e-07 0)
(0.827736 -4.91513e-07 0)
(0.827736 -3.88963e-07 0)
(0.827736 -2.68167e-07 0)
(0.827736 -1.47176e-07 0)
(0.827736 -3.8388e-08 0)
(0.827736 6.36108e-08 0)
(0.827736 1.73251e-07 0)
(0.827736 2.93954e-07 0)
(0.827736 4.11162e-07 0)
(0.827736 5.08635e-07 0)
(0.827735 5.67941e-07 0)
(0.827736 5.71291e-07 0)
(0.944664 -3.12577e-07 0)
(0.944663 -4.09398e-07 0)
(0.944663 -5.09184e-07 0)
(0.944663 -5.67343e-07 0)
(0.944663 -5.83373e-07 0)
(0.944663 -5.61704e-07 0)
(0.944662 -5.06291e-07 0)
(0.944662 -4.33665e-07 0)
(0.944662 -3.5676e-07 0)
(0.944662 -2.74989e-07 0)
(0.944662 -1.77631e-07 0)
(0.944662 -6.53364e-08 0)
(0.944661 4.89296e-08 0)
(0.944661 1.55333e-07 0)
(0.944661 2.57364e-07 0)
(0.944661 3.6391e-07 0)
(0.944661 4.70236e-07 0)
(0.944661 5.58747e-07 0)
(0.944661 6.09245e-07 0)
(0.944661 6.11821e-07 0)
(1.03795 -1.36018e-07 0)
(1.03795 -2.0761e-07 0)
(1.03795 -2.75225e-07 0)
(1.03795 -3.11448e-07 0)
(1.03795 -3.20353e-07 0)
(1.03795 -3.09455e-07 0)
(1.03795 -2.72733e-07 0)
(1.03795 -2.1098e-07 0)
(1.03795 -1.36879e-07 0)
(1.03795 -6.34126e-08 0)
(1.03795 1.12165e-08 0)
(1.03795 9.39723e-08 0)
(1.03795 1.84806e-07 0)
(1.03795 2.77372e-07 0)
(1.03795 3.65758e-07 0)
(1.03795 4.51541e-07 0)
(1.03795 5.34994e-07 0)
(1.03795 6.02706e-07 0)
(1.03795 6.37498e-07 0)
(1.03795 6.37802e-07 0)
(1.10777 8.88686e-08 0)
(1.10777 4.98116e-08 0)
(1.10777 1.79352e-08 0)
(1.10777 5.63511e-09 0)
(1.10777 1.4094e-08 0)
(1.10777 3.0669e-08 0)
(1.10777 5.52171e-08 0)
(1.10777 9.63915e-08 0)
(1.10777 1.52482e-07 0)
(1.10777 2.12209e-07 0)
(1.10777 2.67715e-07 0)
(1.10777 3.2016e-07 0)
(1.10777 3.74262e-07 0)
(1.10777 4.33716e-07 0)
(1.10777 4.9499e-07 0)
(1.10777 5.52293e-07 0)
(1.10777 6.05516e-07 0)
(1.10777 6.45504e-07 0)
(1.10777 6.59341e-07 0)
(1.10777 6.54739e-07 0)
(1.15424 3.36095e-07 0)
(1.15424 3.28715e-07 0)
(1.15424 3.36799e-07 0)
(1.15424 3.50635e-07 0)
(1.15424 3.76007e-07 0)
(1.15424 4.06498e-07 0)
(1.15424 4.32605e-07 0)
(1.15424 4.59656e-07 0)
(1.15424 4.90772e-07 0)
(1.15424 5.24067e-07 0)
(1.15424 5.53665e-07 0)
(1.15424 5.75898e-07 0)
(1.15424 5.92807e-07 0)
(1.15424 6.1108e-07 0)
(1.15424 6.34279e-07 0)
(1.15424 6.55825e-07 0)
(1.15424 6.7408e-07 0)
(1.15424 6.8352e-07 0)
(1.15424 6.74803e-07 0)
(1.15424 6.62014e-07 0)
(1.17746 5.84144e-07 0)
(1.17746 6.03977e-07 0)
(1.17746 6.53187e-07 0)
(1.17746 7.00043e-07 0)
(1.17746 7.42037e-07 0)
(1.17746 7.825e-07 0)
(1.17745 8.11507e-07 0)
(1.17745 8.29862e-07 0)
(1.17745 8.38443e-07 0)
(1.17745 8.40504e-07 0)
(1.17745 8.37831e-07 0)
(1.17745 8.27362e-07 0)
(1.17745 8.08638e-07 0)
(1.17745 7.85648e-07 0)
(1.17745 7.65986e-07 0)
(1.17745 7.47792e-07 0)
(1.17745 7.29589e-07 0)
(1.17745 7.08195e-07 0)
(1.17745 6.78489e-07 0)
(1.17745 6.56888e-07 0)
(1.17746 8.11507e-07 0)
(1.17746 8.58024e-07 0)
(1.17746 9.43461e-07 0)
(1.17746 1.02423e-06 0)
(1.17746 1.08595e-06 0)
(1.17746 1.13272e-06 0)
(1.17746 1.15922e-06 0)
(1.17745 1.16708e-06 0)
(1.17745 1.15609e-06 0)
(1.17745 1.12849e-06 0)
(1.17745 1.09157e-06 0)
(1.17745 1.04668e-06 0)
(1.17745 9.93653e-07 0)
(1.17745 9.33612e-07 0)
(1.17745 8.73196e-07 0)
(1.17745 8.15703e-07 0)
(1.17745 7.62655e-07 0)
(1.17745 7.11819e-07 0)
(1.17745 6.63096e-07 0)
(1.17745 6.35074e-07 0)
(1.15424 9.99848e-07 0)
(1.15424 1.07624e-06 0)
(1.15424 1.19154e-06 0)
(1.15424 1.29673e-06 0)
(1.15424 1.37644e-06 0)
(1.15424 1.42813e-06 0)
(1.15424 1.44801e-06 0)
(1.15424 1.44079e-06 0)
(1.15424 1.41012e-06 0)
(1.15424 1.35659e-06 0)
(1.15424 1.28729e-06 0)
(1.15424 1.20829e-06 0)
(1.15424 1.12252e-06 0)
(1.15424 1.03138e-06 0)
(1.15424 9.3806e-07 0)
(1.15424 8.46842e-07 0)
(1.15424 7.63184e-07 0)
(1.15424 6.87132e-07 0)
(1.15424 6.2266e-07 0)
(1.15424 5.90803e-07 0)
(1.10777 1.13641e-06 0)
(1.10777 1.24148e-06 0)
(1.10777 1.38123e-06 0)
(1.10777 1.49772e-06 0)
(1.10777 1.58529e-06 0)
(1.10777 1.63749e-06 0)
(1.10777 1.64854e-06 0)
(1.10777 1.62356e-06 0)
(1.10777 1.57102e-06 0)
(1.10777 1.49447e-06 0)
(1.10777 1.3985e-06 0)
(1.10777 1.2903e-06 0)
(1.10777 1.17557e-06 0)
(1.10777 1.05853e-06 0)
(1.10777 9.41009e-07 0)
(1.10777 8.25332e-07 0)
(1.10777 7.18025e-07 0)
(1.10777 6.23414e-07 0)
(1.10777 5.49567e-07 0)
(1.10777 5.18499e-07 0)
(1.03796 1.20806e-06 0)
(1.03795 1.33231e-06 0)
(1.03795 1.4885e-06 0)
(1.03795 1.60527e-06 0)
(1.03795 1.68675e-06 0)
(1.03795 1.73054e-06 0)
(1.03795 1.7308e-06 0)
(1.03795 1.69109e-06 0)
(1.03795 1.61977e-06 0)
(1.03795 1.5244e-06 0)
(1.03796 1.40958e-06 0)
(1.03796 1.28167e-06 0)
(1.03796 1.14666e-06 0)
(1.03796 1.01056e-06 0)
(1.03796 8.76213e-07 0)
(1.03796 7.45526e-07 0)
(1.03796 6.23787e-07 0)
(1.03796 5.17941e-07 0)
(1.03796 4.40558e-07 0)
(1.03796 4.16672e-07 0)
(0.944666 1.20084e-06 0)
(0.944666 1.3303e-06 0)
(0.944666 1.48781e-06 0)
(0.944666 1.59553e-06 0)
(0.944666 1.66057e-06 0)
(0.944666 1.68656e-06 0)
(0.944666 1.67207e-06 0)
(0.944667 1.62194e-06 0)
(0.944667 1.54157e-06 0)
(0.944667 1.43781e-06 0)
(0.944667 1.31565e-06 0)
(0.944667 1.18098e-06 0)
(0.944667 1.0394e-06 0)
(0.944668 8.96807e-07 0)
(0.944668 7.56369e-07 0)
(0.944668 6.20654e-07 0)
(0.944668 4.95155e-07 0)
(0.944668 3.87935e-07 0)
(0.944668 3.13341e-07 0)
(0.944669 2.99978e-07 0)
(0.827739 1.10615e-06 0)
(0.827739 1.22762e-06 0)
(0.82774 1.36483e-06 0)
(0.82774 1.45079e-06 0)
(0.82774 1.49471e-06 0)
(0.82774 1.5004e-06 0)
(0.827741 1.46898e-06 0)
(0.827741 1.40892e-06 0)
(0.827741 1.32544e-06 0)
(0.827741 1.22297e-06 0)
(0.827742 1.10518e-06 0)
(0.827742 9.76707e-07 0)
(0.827742 8.43014e-07 0)
(0.827742 7.10181e-07 0)
(0.827743 5.81462e-07 0)
(0.827743 4.57766e-07 0)
(0.827743 3.43167e-07 0)
(0.827743 2.46754e-07 0)
(0.827743 1.84827e-07 0)
(0.827743 1.85848e-07 0)
(0.686976 9.22667e-07 0)
(0.686977 1.02337e-06 0)
(0.686977 1.12114e-06 0)
(0.686977 1.17234e-06 0)
(0.686978 1.1934e-06 0)
(0.686978 1.18798e-06 0)
(0.686978 1.15355e-06 0)
(0.686979 1.09622e-06 0)
(0.686979 1.01984e-06 0)
(0.686979 9.27318e-07 0)
(0.68698 8.22568e-07 0)
(0.68698 7.10527e-07 0)
(0.68698 5.96492e-07 0)
(0.686981 4.85366e-07 0)
(0.686981 3.79776e-07 0)
(0.686981 2.78987e-07 0)
(0.686981 1.84975e-07 0)
(0.686981 1.0598e-07 0)
(0.686981 6.1295e-08 0)
(0.686981 7.67418e-08 0)
(0.52215 6.60938e-07 0)
(0.52215 7.25563e-07 0)
(0.522151 7.81314e-07 0)
(0.522151 8.06424e-07 0)
(0.522151 8.14056e-07 0)
(0.522152 8.07323e-07 0)
(0.522152 7.8058e-07 0)
(0.522153 7.36605e-07 0)
(0.522153 6.77843e-07 0)
(0.522153 6.05613e-07 0)
(0.522154 5.23022e-07 0)
(0.522154 4.35593e-07 0)
(0.522154 3.49675e-07 0)
(0.522155 2.6902e-07 0)
(0.522155 1.93477e-07 0)
(0.522155 1.19982e-07 0)
(0.522155 5.14709e-08 0)
(0.522155 -5.10638e-09 0)
(0.522155 -3.36704e-08 0)
(0.522155 -1.2591e-08 0)
(0.33301 3.57297e-07 0)
(0.33301 3.75156e-07 0)
(0.333011 3.90253e-07 0)
(0.333011 3.98039e-07 0)
(0.333011 3.98155e-07 0)
(0.333012 3.9411e-07 0)
(0.333012 3.80433e-07 0)
(0.333013 3.55208e-07 0)
(0.333013 3.18604e-07 0)
(0.333013 2.73495e-07 0)
(0.333014 2.25211e-07 0)
(0.333014 1.78466e-07 0)
(0.333014 1.34438e-07 0)
(0.333014 9.18307e-08 0)
(0.333014 5.14013e-08 0)
(0.333014 1.09643e-08 0)
(0.333014 -2.88633e-08 0)
(0.333014 -5.7107e-08 0)
(0.333014 -6.61109e-08 0)
(0.333014 -4.74432e-08 0)
(0.119289 9.92947e-08 0)
(0.119289 9.85009e-08 0)
(0.11929 9.78568e-08 0)
(0.11929 9.70727e-08 0)
(0.11929 9.54966e-08 0)
(0.11929 9.43405e-08 0)
(0.11929 9.14867e-08 0)
(0.119291 8.46429e-08 0)
(0.119291 7.28054e-08 0)
(0.119291 5.7877e-08 0)
(0.119291 4.34392e-08 0)
(0.119291 3.1571e-08 0)
(0.119291 2.08224e-08 0)
(0.119291 8.98049e-09 0)
(0.119291 -2.71404e-09 0)
(0.119291 -1.35969e-08 0)
(0.119291 -2.53365e-08 0)
(0.119291 -3.34131e-08 0)
(0.119291 -3.34839e-08 0)
(0.119291 -2.3776e-08 0)
)
;

boundaryField
{
    movingWall
    {
        type            fixedValue;
        value           uniform (0 0 0);
    }
    bottomWall
    {
        type            noSlip;
    }
    leftSide
    {
        type            zeroGradient;
    }
    rightSide
    {
        type            zeroGradient;
    }
    frontAndBack
    {
        type            empty;
    }
}


// ************************************************************************* //
