/*--------------------------------*- C++ -*----------------------------------*\
| =========                 |                                                 |
| \\      /  F ield         | OpenFOAM: The Open Source CFD Toolbox           |
|  \\    /   O peration     | Version:  v2012                                 |
|   \\  /    A nd           | Website:  www.openfoam.com                      |
|    \\/     M anipulation  |                                                 |
\*---------------------------------------------------------------------------*/
FoamFile
{
    version     2.0;
    format      ascii;
    class       volScalarField;
    location    "0.5";
    object      p;
}
// * * * * * * * * * * * * * * * * * * * * * * * * * * * * * * * * * * * * * //

dimensions      [0 2 -2 0 0 0 0];


internalField   nonuniform List<scalar> 
400
(
0.975001
0.925002
0.875002
0.825
0.774999
0.724998
0.674998
0.624997
0.574996
0.524995
0.474995
0.424994
0.374995
0.324995
0.274995
0.224995
0.174995
0.124995
0.0749965
0.0249985
0.975001
0.925002
0.875001
0.825
0.774999
0.724998
0.674998
0.624997
0.574996
0.524995
0.474995
0.424995
0.374995
0.324995
0.274995
0.224995
0.174995
0.124996
0.0749967
0.0249986
0.975001
0.925002
0.875001
0.825
0.774999
0.724998
0.674998
0.624997
0.574996
0.524996
0.474995
0.424995
0.374995
0.324995
0.274995
0.224995
0.174995
0.124996
0.0749967
0.0249985
0.975002
0.925003
0.875002
0.825
0.774999
0.724999
0.674998
0.624997
0.574997
0.524996
0.474996
0.424995
0.374995
0.324995
0.274995
0.224995
0.174996
0.124996
0.0749967
0.0249985
0.975002
0.925003
0.875002
0.825001
0.775
0.724999
0.674998
0.624998
0.574997
0.524997
0.474996
0.424996
0.374996
0.324996
0.274996
0.224996
0.174996
0.124996
0.0749969
0.0249986
0.975002
0.925004
0.875003
0.825001
0.775
0.724999
0.674999
0.624998
0.574998
0.524997
0.474997
0.424996
0.374996
0.324996
0.274996
0.224996
0.174996
0.124997
0.074997
0.0249986
0.975002
0.925004
0.875003
0.825002
0.775001
0.725
0.675
0.624999
0.574998
0.524997
0.474997
0.424997
0.374997
0.324997
0.274997
0.224997
0.174997
0.124997
0.074997
0.0249986
0.975002
0.925004
0.875003
0.825002
0.775001
0.725001
0.675
0.624999
0.574999
0.524998
0.474997
0.424997
0.374997
0.324997
0.274997
0.224997
0.174997
0.124997
0.0749971
0.0249986
0.975002
0.925004
0.875004
0.825003
0.775002
0.725001
0.675
0.625
0.574999
0.524998
0.474997
0.424997
0.374997
0.324997
0.274997
0.224997
0.174997
0.124997
0.0749971
0.0249986
0.975002
0.925005
0.875004
0.825003
0.775002
0.725001
0.675
0.625
0.574999
0.524998
0.474997
0.424997
0.374997
0.324997
0.274997
0.224997
0.174997
0.124997
0.0749971
0.0249987
0.975002
0.925005
0.875004
0.825003
0.775002
0.725001
0.675
0.624999
0.574999
0.524998
0.474997
0.424997
0.374997
0.324997
0.274997
0.224997
0.174997
0.124997
0.0749972
0.0249987
0.975002
0.925005
0.875004
0.825002
0.775001
0.725001
0.675
0.624999
0.574998
0.524998
0.474997
0.424997
0.374997
0.324997
0.274997
0.224997
0.174997
0.124997
0.0749972
0.0249987
0.975002
0.925004
0.875003
0.825002
0.775001
0.725
0.675
0.624999
0.574998
0.524998
0.474997
0.424997
0.374997
0.324997
0.274997
0.224998
0.174998
0.124997
0.0749974
0.0249988
0.975002
0.925004
0.875003
0.825002
0.775001
0.725
0.674999
0.624999
0.574998
0.524998
0.474997
0.424997
0.374997
0.324997
0.274998
0.224998
0.174998
0.124998
0.0749975
0.0249989
0.975002
0.925004
0.875003
0.825002
0.775001
0.725
0.674999
0.624999
0.574998
0.524998
0.474998
0.424997
0.374997
0.324998
0.274998
0.224998
0.174998
0.124998
0.0749976
0.0249989
0.975002
0.925004
0.875003
0.825002
0.775001
0.725
0.675
0.624999
0.574998
0.524998
0.474998
0.424998
0.374998
0.324998
0.274998
0.224998
0.174998
0.124998
0.0749977
0.024999
0.975002
0.925003
0.875003
0.825002
0.775001
0.725
0.675
0.624999
0.574999
0.524998
0.474998
0.424998
0.374998
0.324998
0.274998
0.224998
0.174998
0.124998
0.074998
0.0249991
0.975002
0.925003
0.875003
0.825002
0.775001
0.725001
0.675
0.624999
0.574999
0.524999
0.474998
0.424998
0.374998
0.324998
0.274998
0.224998
0.174998
0.124998
0.0749981
0.0249992
0.975002
0.925003
0.875003
0.825002
0.775002
0.725001
0.675001
0.625
0.574999
0.524999
0.474999
0.424998
0.374998
0.324998
0.274998
0.224998
0.174998
0.124998
0.0749983
0.0249993
0.975002
0.925003
0.875003
0.825003
0.775002
0.725002
0.675001
0.625001
0.575
0.525
0.474999
0.424999
0.374998
0.324998
0.274998
0.224998
0.174998
0.124998
0.0749983
0.0249992
)
;

boundaryField
{
    movingWall
    {
        type            zeroGradient;
    }
    bottomWall
    {
        type            zeroGradient;
    }
    leftSide
    {
        type            fixedValue;
        value           uniform 1;
    }
    rightSide
    {
        type            fixedValue;
        value           uniform 0;
    }
    frontAndBack
    {
        type            empty;
    }
}


// ************************************************************************* //
