/*--------------------------------*- C++ -*----------------------------------*\
| =========                 |                                                 |
| \\      /  F ield         | OpenFOAM: The Open Source CFD Toolbox           |
|  \\    /   O peration     | Version:  v2012                                 |
|   \\  /    A nd           | Website:  www.openfoam.com                      |
|    \\/     M anipulation  |                                                 |
\*---------------------------------------------------------------------------*/
FoamFile
{
    version     2.0;
    format      ascii;
    class       surfaceScalarField;
    location    "0.5";
    object      phi;
}
// * * * * * * * * * * * * * * * * * * * * * * * * * * * * * * * * * * * * * //

dimensions      [0 3 -1 0 0 0 0];
oriented        oriented;


internalField   nonuniform List<scalar> 
760
(
6.20736e-06
-9.18364e-12
6.20737e-06
-9.71068e-12
6.20738e-06
-9.7609e-12
6.20739e-06
-9.32175e-12
6.20739e-06
-7.65925e-12
6.2074e-06
-5.54552e-12
6.2074e-06
-4.18269e-12
6.20741e-06
-3.55014e-12
6.20741e-06
-3.18246e-12
6.20741e-06
-2.70948e-12
6.20741e-06
-1.65204e-12
6.20741e-06
-1.21307e-13
6.20741e-06
1.24038e-12
6.20741e-06
2.08924e-12
6.2074e-06
2.79577e-12
6.2074e-06
3.92859e-12
6.2074e-06
5.32204e-12
6.20739e-06
6.46926e-12
6.20738e-06
7.039e-12
7.03288e-12
1.73732e-05
-2.02398e-11
1.73732e-05
-2.30081e-11
1.73732e-05
-2.34847e-11
1.73732e-05
-2.19592e-11
1.73732e-05
-1.93621e-11
1.73732e-05
-1.58189e-11
1.73732e-05
-1.22513e-11
1.73733e-05
-9.66686e-12
1.73733e-05
-7.93933e-12
1.73733e-05
-6.5273e-12
1.73733e-05
-4.78887e-12
1.73733e-05
-2.07035e-12
1.73733e-05
1.47841e-12
1.73733e-05
4.94715e-12
1.73733e-05
7.56342e-12
1.73733e-05
9.45784e-12
1.73732e-05
1.13172e-11
1.73732e-05
1.35618e-11
1.73732e-05
1.53098e-11
1.50842e-11
2.72922e-05
-2.75349e-11
2.72922e-05
-3.20661e-11
2.72922e-05
-3.31145e-11
2.72922e-05
-3.12346e-11
2.72922e-05
-2.8542e-11
2.72922e-05
-2.54517e-11
2.72922e-05
-2.15739e-11
2.72922e-05
-1.71261e-11
2.72922e-05
-1.25638e-11
2.72922e-05
-8.47985e-12
2.72922e-05
-5.09856e-12
2.72922e-05
-1.82746e-12
2.72922e-05
2.12949e-12
2.72922e-05
6.64032e-12
2.72922e-05
1.09359e-11
2.72922e-05
1.42515e-11
2.72922e-05
1.67709e-11
2.72922e-05
1.93116e-11
2.72922e-05
2.14169e-11
2.1075e-11
3.59663e-05
-2.83782e-11
3.59663e-05
-3.35746e-11
3.59663e-05
-3.62246e-11
3.59663e-05
-3.53534e-11
3.59663e-05
-3.2272e-11
3.59663e-05
-2.82873e-11
3.59663e-05
-2.41357e-11
3.59663e-05
-1.98734e-11
3.59663e-05
-1.5064e-11
3.59663e-05
-9.72594e-12
3.59663e-05
-4.57713e-12
3.59663e-05
-2.71534e-13
3.59663e-05
3.53995e-12
3.59663e-05
7.47747e-12
3.59663e-05
1.19246e-11
3.59663e-05
1.63843e-11
3.59663e-05
2.02169e-11
3.59663e-05
2.335e-11
3.59663e-05
2.54664e-11
2.50298e-11
4.33974e-05
-2.57002e-11
4.33974e-05
-3.03381e-11
4.33974e-05
-3.29688e-11
4.33974e-05
-3.28171e-11
4.33974e-05
-3.05926e-11
4.33974e-05
-2.66243e-11
4.33974e-05
-2.1885e-11
4.33974e-05
-1.72637e-11
4.33974e-05
-1.27611e-11
4.33974e-05
-7.95377e-12
4.33974e-05
-2.78938e-12
4.33974e-05
2.17725e-12
4.33974e-05
6.48193e-12
4.33974e-05
1.02993e-11
4.33974e-05
1.42244e-11
4.33974e-05
1.84459e-11
4.33974e-05
2.25167e-11
4.33974e-05
2.57825e-11
4.33974e-05
2.76995e-11
2.7227e-11
4.95872e-05
-1.90567e-11
4.95872e-05
-2.27234e-11
4.95872e-05
-2.45632e-11
4.95872e-05
-2.42907e-11
4.95872e-05
-2.28054e-11
4.95872e-05
-1.97041e-11
4.95872e-05
-1.52879e-11
4.95872e-05
-1.05157e-11
4.95872e-05
-6.05844e-12
4.95872e-05
-1.94478e-12
4.95872e-05
2.19897e-12
4.95872e-05
6.46918e-12
4.95872e-05
1.05186e-11
4.95872e-05
1.40843e-11
4.95871e-05
1.73766e-11
4.95871e-05
2.07506e-11
4.95871e-05
2.4171e-11
4.95871e-05
2.69532e-11
4.95871e-05
2.83735e-11
2.7868e-11
5.45372e-05
-8.89236e-12
5.45372e-05
-1.12085e-11
5.45372e-05
-1.19182e-11
5.45372e-05
-1.09324e-11
5.45372e-05
-9.35185e-12
5.45372e-05
-7.02733e-12
5.45372e-05
-3.8601e-12
5.45371e-05
-1.56572e-13
5.45371e-05
3.55019e-12
5.45371e-05
6.81914e-12
5.45371e-05
9.72528e-12
5.45371e-05
1.26317e-11
5.45371e-05
1.56229e-11
5.45371e-05
1.84357e-11
5.45371e-05
2.09095e-11
5.45371e-05
2.32036e-11
5.45371e-05
2.54739e-11
5.45371e-05
2.72823e-11
5.45371e-05
2.79189e-11
2.72199e-11
5.82486e-05
3.56358e-12
5.82486e-05
2.94482e-12
5.82486e-05
3.68128e-12
5.82486e-05
5.44831e-12
5.82486e-05
7.5003e-12
5.82485e-05
9.57795e-12
5.82485e-05
1.15232e-11
5.82485e-05
1.34463e-11
5.82485e-05
1.5446e-11
5.82485e-05
1.72723e-11
5.82485e-05
1.87577e-11
5.82485e-05
2.00862e-11
5.82485e-05
2.15475e-11
5.82485e-05
2.3111e-11
5.82485e-05
2.44993e-11
5.82485e-05
2.56135e-11
5.82485e-05
2.6548e-11
5.82485e-05
2.71157e-11
5.82485e-05
2.6821e-11
2.57557e-11
6.07224e-05
1.70699e-11
6.07223e-05
1.82315e-11
6.07223e-05
2.07529e-11
6.07223e-05
2.33373e-11
6.07223e-05
2.56131e-11
6.07223e-05
2.74736e-11
6.07223e-05
2.85206e-11
6.07222e-05
2.87772e-11
6.07222e-05
2.87195e-11
6.07222e-05
2.85691e-11
6.07222e-05
2.83217e-11
6.07222e-05
2.79864e-11
6.07222e-05
2.77396e-11
6.07222e-05
2.76979e-11
6.07222e-05
2.76951e-11
6.07222e-05
2.75346e-11
6.07222e-05
2.71704e-11
6.07222e-05
2.64911e-11
6.07222e-05
2.52711e-11
2.38832e-11
6.19591e-05
3.07473e-11
6.19591e-05
3.35017e-11
6.1959e-05
3.78361e-11
6.1959e-05
4.13251e-11
6.1959e-05
4.35026e-11
6.1959e-05
4.46761e-11
6.1959e-05
4.47153e-11
6.1959e-05
4.35808e-11
6.19589e-05
4.17071e-11
6.19589e-05
3.95346e-11
6.19589e-05
3.73553e-11
6.19589e-05
3.52781e-11
6.19589e-05
3.33371e-11
6.19589e-05
3.1592e-11
6.19589e-05
3.00091e-11
6.19589e-05
2.84691e-11
6.19589e-05
2.68965e-11
6.19589e-05
2.51289e-11
6.19589e-05
2.30805e-11
2.15452e-11
6.19591e-05
4.35193e-11
6.19591e-05
4.75791e-11
6.19591e-05
5.32874e-11
6.1959e-05
5.74847e-11
6.1959e-05
5.94782e-11
6.1959e-05
5.96789e-11
6.1959e-05
5.83889e-11
6.1959e-05
5.58814e-11
6.1959e-05
5.25189e-11
6.1959e-05
4.86665e-11
6.1959e-05
4.46973e-11
6.1959e-05
4.09134e-11
6.1959e-05
3.73994e-11
6.19589e-05
3.41109e-11
6.19589e-05
3.1026e-11
6.19589e-05
2.81241e-11
6.19589e-05
2.54179e-11
6.1959e-05
2.27487e-11
6.1959e-05
2.00525e-11
1.84603e-11
6.07224e-05
5.40722e-11
6.07224e-05
5.92268e-11
6.07224e-05
6.56494e-11
6.07224e-05
6.99599e-11
6.07224e-05
7.16202e-11
6.07224e-05
7.09029e-11
6.07223e-05
6.82286e-11
6.07223e-05
6.43118e-11
6.07223e-05
5.9658e-11
6.07223e-05
5.45391e-11
6.07223e-05
4.92161e-11
6.07223e-05
4.4022e-11
6.07223e-05
3.91789e-11
6.07223e-05
3.46663e-11
6.07223e-05
3.04212e-11
6.07223e-05
2.64385e-11
6.07223e-05
2.27878e-11
6.07223e-05
1.93898e-11
6.07223e-05
1.62655e-11
1.46836e-11
5.82487e-05
6.12631e-11
5.82487e-05
6.72404e-11
5.82487e-05
7.37193e-11
5.82487e-05
7.74605e-11
5.82487e-05
7.84179e-11
5.82487e-05
7.68793e-11
5.82487e-05
7.31085e-11
5.82487e-05
6.79832e-11
5.82487e-05
6.22427e-11
5.82487e-05
5.62022e-11
5.82487e-05
5.00419e-11
5.82487e-05
4.39897e-11
5.82487e-05
3.82916e-11
5.82487e-05
3.30129e-11
5.82487e-05
2.80862e-11
5.82487e-05
2.3475e-11
5.82487e-05
1.92295e-11
5.82487e-05
1.53265e-11
5.82487e-05
1.19643e-11
1.05944e-11
5.45374e-05
6.43497e-11
5.45373e-05
7.06707e-11
5.45373e-05
7.65574e-11
5.45373e-05
7.91981e-11
5.45373e-05
7.90554e-11
5.45373e-05
7.6632e-11
5.45373e-05
7.21428e-11
5.45373e-05
6.62918e-11
5.45373e-05
5.98693e-11
5.45373e-05
5.32973e-11
5.45374e-05
4.67773e-11
5.45374e-05
4.04526e-11
5.45374e-05
3.44879e-11
5.45374e-05
2.89868e-11
5.45374e-05
2.39045e-11
5.45374e-05
1.91608e-11
5.45374e-05
1.47521e-11
5.45374e-05
1.06974e-11
5.45374e-05
7.37366e-12
6.47332e-12
4.95874e-05
6.28141e-11
4.95874e-05
6.88373e-11
4.95874e-05
7.34449e-11
4.95874e-05
7.46345e-11
4.95874e-05
7.32971e-11
4.95874e-05
6.99962e-11
4.95874e-05
6.50923e-11
4.95874e-05
5.90919e-11
4.95874e-05
5.25637e-11
4.95874e-05
4.59462e-11
4.95874e-05
3.95135e-11
4.95874e-05
3.34107e-11
4.95874e-05
2.77138e-11
4.95874e-05
2.24891e-11
4.95874e-05
1.77018e-11
4.95875e-05
1.32407e-11
4.95875e-05
9.04992e-12
4.95875e-05
5.2307e-12
4.95875e-05
2.36149e-12
2.10776e-12
4.33975e-05
5.63461e-11
4.33975e-05
6.14006e-11
4.33976e-05
6.41335e-11
4.33976e-05
6.37095e-11
4.33976e-05
6.14667e-11
4.33976e-05
5.77367e-11
4.33976e-05
5.28359e-11
4.33976e-05
4.72384e-11
4.33976e-05
4.12828e-11
4.33976e-05
3.52898e-11
4.33976e-05
2.95313e-11
4.33977e-05
2.41788e-11
4.33977e-05
1.92779e-11
4.33977e-05
1.48303e-11
4.33977e-05
1.07653e-11
4.33977e-05
6.94621e-12
4.33977e-05
3.2856e-12
4.33977e-05
-4.04241e-14
4.33977e-05
-2.24232e-12
-1.94075e-12
3.59664e-05
4.51284e-11
3.59664e-05
4.85344e-11
3.59664e-05
4.91378e-11
3.59664e-05
4.7399e-11
3.59665e-05
4.4835e-11
3.59665e-05
4.15429e-11
3.59665e-05
3.75377e-11
3.59665e-05
3.31603e-11
3.59665e-05
2.85928e-11
3.59665e-05
2.39913e-11
3.59665e-05
1.95272e-11
3.59665e-05
1.53649e-11
3.59666e-05
1.15965e-11
3.59666e-05
8.2284e-12
3.59666e-05
5.16031e-12
3.59666e-05
2.25038e-12
3.59666e-05
-6.05818e-13
3.59666e-05
-3.31717e-12
3.59666e-05
-4.99146e-12
-4.21775e-12
2.72922e-05
3.02371e-11
2.72923e-05
3.14635e-11
2.72923e-05
3.02918e-11
2.72923e-05
2.8123e-11
2.72923e-05
2.59087e-11
2.72923e-05
2.34163e-11
2.72924e-05
2.04774e-11
2.72924e-05
1.73533e-11
2.72924e-05
1.42553e-11
2.72924e-05
1.1266e-11
2.72924e-05
8.40902e-12
2.72924e-05
5.77572e-12
2.72924e-05
3.52713e-12
2.72924e-05
1.70355e-12
2.72924e-05
6.36254e-14
2.72924e-05
-1.67638e-12
2.72924e-05
-3.49945e-12
2.72924e-05
-5.25065e-12
2.72924e-05
-5.98196e-12
-4.56099e-12
1.73732e-05
1.34378e-11
1.73733e-05
1.28787e-11
1.73733e-05
1.12607e-11
1.73733e-05
9.7815e-12
1.73733e-05
8.59367e-12
1.73733e-05
7.43596e-12
1.73733e-05
6.25481e-12
1.73733e-05
5.08856e-12
1.73734e-05
3.9336e-12
1.73734e-05
2.79994e-12
1.73734e-05
1.77146e-12
1.73734e-05
9.20074e-13
1.73734e-05
1.95106e-13
1.73734e-05
-4.89047e-13
1.73734e-05
-1.13985e-12
1.73734e-05
-1.74531e-12
1.73734e-05
-2.2784e-12
1.73734e-05
-2.92362e-12
1.73734e-05
-3.24132e-12
-2.52462e-12
6.20738e-06
6.20739e-06
6.2074e-06
6.20741e-06
6.20742e-06
6.20743e-06
6.20743e-06
6.20744e-06
6.20744e-06
6.20744e-06
6.20745e-06
6.20745e-06
6.20745e-06
6.20745e-06
6.20745e-06
6.20744e-06
6.20744e-06
6.20744e-06
6.20744e-06
)
;

boundaryField
{
    movingWall
    {
        type            calculated;
        value           uniform 0;
    }
    bottomWall
    {
        type            calculated;
        value           uniform 0;
    }
    leftSide
    {
        type            calculated;
        value           nonuniform List<scalar> 
20
(
-6.20735e-06
-1.73732e-05
-2.72922e-05
-3.59663e-05
-4.33974e-05
-4.95872e-05
-5.45372e-05
-5.82486e-05
-6.07224e-05
-6.19591e-05
-6.19591e-05
-6.07224e-05
-5.82487e-05
-5.45374e-05
-4.95874e-05
-4.33975e-05
-3.59664e-05
-2.72922e-05
-1.73732e-05
-6.20736e-06
)
;
    }
    rightSide
    {
        type            calculated;
        value           nonuniform List<scalar> 
20
(
6.20738e-06
1.73732e-05
2.72922e-05
3.59663e-05
4.33974e-05
4.95871e-05
5.45371e-05
5.82485e-05
6.07222e-05
6.19589e-05
6.1959e-05
6.07223e-05
5.82487e-05
5.45374e-05
4.95875e-05
4.33977e-05
3.59666e-05
2.72924e-05
1.73734e-05
6.20743e-06
)
;
    }
    frontAndBack
    {
        type            empty;
        value           nonuniform List<scalar> 0();
    }
}


// ************************************************************************* //
