/*--------------------------------*- C++ -*----------------------------------*\
| =========                 |                                                 |
| \\      /  F ield         | OpenFOAM: The Open Source CFD Toolbox           |
|  \\    /   O peration     | Version:  v2012                                 |
|   \\  /    A nd           | Website:  www.openfoam.com                      |
|    \\/     M anipulation  |                                                 |
\*---------------------------------------------------------------------------*/
FoamFile
{
    version     2.0;
    format      ascii;
    class       volVectorField;
    location    "0.5";
    object      U;
}
// * * * * * * * * * * * * * * * * * * * * * * * * * * * * * * * * * * * * * //

dimensions      [0 1 -1 0 0 0 0];


internalField   nonuniform List<vector> 
400
(
(0.124147 -9.57745e-08 0)
(0.124147 -1.03167e-07 0)
(0.124147 -1.02079e-07 0)
(0.124148 -9.11927e-08 0)
(0.124148 -6.91354e-08 0)
(0.124148 -4.58341e-08 0)
(0.124148 -3.42801e-08 0)
(0.124148 -3.35022e-08 0)
(0.124148 -3.57122e-08 0)
(0.124148 -3.25479e-08 0)
(0.124148 -1.89381e-08 0)
(0.124148 7.42754e-10 0)
(0.124148 1.6008e-08 0)
(0.124148 2.23768e-08 0)
(0.124148 2.64008e-08 0)
(0.124148 3.63867e-08 0)
(0.124148 5.18344e-08 0)
(0.124148 6.48276e-08 0)
(0.124148 7.15779e-08 0)
(0.124148 7.07635e-08 0)
(0.347463 -3.03882e-07 0)
(0.347464 -3.35848e-07 0)
(0.347464 -3.39189e-07 0)
(0.347464 -3.16873e-07 0)
(0.347464 -2.69162e-07 0)
(0.347465 -2.09207e-07 0)
(0.347465 -1.60778e-07 0)
(0.347465 -1.30792e-07 0)
(0.347465 -1.12438e-07 0)
(0.347465 -9.60005e-08 0)
(0.347465 -6.77455e-08 0)
(0.347465 -2.25861e-08 0)
(0.347465 2.89797e-08 0)
(0.347465 7.19236e-08 0)
(0.347465 1.0343e-07 0)
(0.347465 1.32742e-07 0)
(0.347465 1.66708e-07 0)
(0.347465 2.01753e-07 0)
(0.347465 2.25659e-07 0)
(0.347464 2.23927e-07 0)
(0.545843 -4.94718e-07 0)
(0.545843 -5.70723e-07 0)
(0.545843 -5.86922e-07 0)
(0.545844 -5.50998e-07 0)
(0.545844 -4.96694e-07 0)
(0.545844 -4.27561e-07 0)
(0.545844 -3.50034e-07 0)
(0.545844 -2.77004e-07 0)
(0.545844 -2.10888e-07 0)
(0.545844 -1.53401e-07 0)
(0.545844 -1.01012e-07 0)
(0.545844 -4.11474e-08 0)
(0.545844 3.47228e-08 0)
(0.545844 1.17928e-07 0)
(0.545844 1.90232e-07 0)
(0.545844 2.44366e-07 0)
(0.545844 2.89161e-07 0)
(0.545844 3.37515e-07 0)
(0.545844 3.75765e-07 0)
(0.545844 3.69642e-07 0)
(0.719326 -5.80993e-07 0)
(0.719326 -6.81124e-07 0)
(0.719326 -7.22278e-07 0)
(0.719326 -6.9624e-07 0)
(0.719326 -6.37185e-07 0)
(0.719326 -5.64319e-07 0)
(0.719326 -4.80247e-07 0)
(0.719326 -3.87401e-07 0)
(0.719326 -2.87784e-07 0)
(0.719326 -1.89451e-07 0)
(0.719326 -1.02175e-07 0)
(0.719326 -2.54248e-08 0)
(0.719326 5.22989e-08 0)
(0.719326 1.39939e-07 0)
(0.719326 2.31081e-07 0)
(0.719326 3.12262e-07 0)
(0.719326 3.78257e-07 0)
(0.719326 4.3688e-07 0)
(0.719326 4.80251e-07 0)
(0.719326 4.7195e-07 0)
(0.867948 -5.63999e-07 0)
(0.867948 -6.6548e-07 0)
(0.867948 -7.22627e-07 0)
(0.867948 -7.15293e-07 0)
(0.867948 -6.61429e-07 0)
(0.867948 -5.77963e-07 0)
(0.867948 -4.84532e-07 0)
(0.867948 -3.92349e-07 0)
(0.867948 -2.96626e-07 0)
(0.867948 -1.91768e-07 0)
(0.867948 -8.39177e-08 0)
(0.867948 1.371e-08 0)
(0.867948 9.69599e-08 0)
(0.867948 1.76081e-07 0)
(0.867948 2.61755e-07 0)
(0.867947 3.51613e-07 0)
(0.867947 4.33923e-07 0)
(0.867947 5.00123e-07 0)
(0.867947 5.41459e-07 0)
(0.867947 5.32093e-07 0)
(0.991745 -4.67159e-07 0)
(0.991744 -5.5252e-07 0)
(0.991744 -5.99877e-07 0)
(0.991744 -5.97344e-07 0)
(0.991744 -5.60702e-07 0)
(0.991744 -4.8864e-07 0)
(0.991744 -3.94387e-07 0)
(0.991744 -2.97692e-07 0)
(0.991744 -2.05938e-07 0)
(0.991743 -1.14692e-07 0)
(0.991743 -1.86838e-08 0)
(0.991743 7.76533e-08 0)
(0.991743 1.64981e-07 0)
(0.991743 2.41705e-07 0)
(0.991743 3.15917e-07 0)
(0.991743 3.93731e-07 0)
(0.991743 4.70685e-07 0)
(0.991743 5.32835e-07 0)
(0.991743 5.67149e-07 0)
(0.991743 5.57627e-07 0)
(1.09074 -2.94281e-07 0)
(1.09074 -3.5455e-07 0)
(1.09074 -3.8046e-07 0)
(1.09074 -3.68376e-07 0)
(1.09074 -3.38934e-07 0)
(1.09074 -2.8572e-07 0)
(1.09074 -2.09492e-07 0)
(1.09074 -1.22931e-07 0)
(1.09074 -3.92724e-08 0)
(1.09074 3.5935e-08 0)
(1.09074 1.07575e-07 0)
(1.09074 1.81315e-07 0)
(1.09074 2.54646e-07 0)
(1.09074 3.21508e-07 0)
(1.09074 3.8165e-07 0)
(1.09074 4.4003e-07 0)
(1.09074 4.98289e-07 0)
(1.09074 5.45402e-07 0)
(1.09074 5.66812e-07 0)
(1.09074 5.55336e-07 0)
(1.16497 -6.27267e-08 0)
(1.16497 -9.19581e-08 0)
(1.16497 -9.10272e-08 0)
(1.16497 -6.3174e-08 0)
(1.16497 -2.74156e-08 0)
(1.16497 1.52487e-08 0)
(1.16497 6.5284e-08 0)
(1.16497 1.21772e-07 0)
(1.16497 1.80201e-07 0)
(1.16497 2.32653e-07 0)
(1.16497 2.77469e-07 0)
(1.16497 3.20464e-07 0)
(1.16497 3.66172e-07 0)
(1.16497 4.11779e-07 0)
(1.16497 4.52416e-07 0)
(1.16497 4.88149e-07 0)
(1.16497 5.21337e-07 0)
(1.16497 5.46054e-07 0)
(1.16497 5.50223e-07 0)
(1.16497 5.32941e-07 0)
(1.21445 2.03514e-07 0)
(1.21445 2.08792e-07 0)
(1.21445 2.41683e-07 0)
(1.21445 2.85386e-07 0)
(1.21445 3.28911e-07 0)
(1.21445 3.68266e-07 0)
(1.21445 3.97693e-07 0)
(1.21444 4.19114e-07 0)
(1.21444 4.38896e-07 0)
(1.21444 4.56647e-07 0)
(1.21444 4.69889e-07 0)
(1.21444 4.79976e-07 0)
(1.21444 4.91962e-07 0)
(1.21444 5.07347e-07 0)
(1.21444 5.21826e-07 0)
(1.21444 5.32196e-07 0)
(1.21444 5.38515e-07 0)
(1.21444 5.37833e-07 0)
(1.21444 5.2313e-07 0)
(1.21444 4.98696e-07 0)
(1.23918 4.81954e-07 0)
(1.23918 5.2151e-07 0)
(1.23918 5.90068e-07 0)
(1.23918 6.50863e-07 0)
(1.23918 6.95826e-07 0)
(1.23918 7.26909e-07 0)
(1.23918 7.38258e-07 0)
(1.23918 7.29441e-07 0)
(1.23918 7.09933e-07 0)
(1.23918 6.86757e-07 0)
(1.23918 6.62806e-07 0)
(1.23918 6.38671e-07 0)
(1.23918 6.16117e-07 0)
(1.23918 5.97284e-07 0)
(1.23918 5.80592e-07 0)
(1.23918 5.63054e-07 0)
(1.23918 5.43353e-07 0)
(1.23918 5.18532e-07 0)
(1.23918 4.85601e-07 0)
(1.23918 4.56417e-07 0)
(1.23918 7.51883e-07 0)
(1.23918 8.20957e-07 0)
(1.23918 9.22127e-07 0)
(1.23918 9.99804e-07 0)
(1.23918 1.04212e-06 0)
(1.23918 1.05638e-06 0)
(1.23918 1.04433e-06 0)
(1.23918 1.00794e-06 0)
(1.23918 9.55169e-07 0)
(1.23918 8.94323e-07 0)
(1.23918 8.32364e-07 0)
(1.23918 7.734e-07 0)
(1.23918 7.18148e-07 0)
(1.23918 6.66594e-07 0)
(1.23918 6.18437e-07 0)
(1.23918 5.72564e-07 0)
(1.23918 5.28603e-07 0)
(1.23918 4.83259e-07 0)
(1.23918 4.34841e-07 0)
(1.23918 4.03133e-07 0)
(1.21445 9.89316e-07 0)
(1.21445 1.08242e-06 0)
(1.21445 1.20579e-06 0)
(1.21445 1.29285e-06 0)
(1.21445 1.3306e-06 0)
(1.21445 1.32574e-06 0)
(1.21445 1.28593e-06 0)
(1.21445 1.22113e-06 0)
(1.21445 1.14002e-06 0)
(1.21445 1.04916e-06 0)
(1.21445 9.54994e-07 0)
(1.21445 8.64105e-07 0)
(1.21445 7.79517e-07 0)
(1.21445 7.00277e-07 0)
(1.21445 6.25486e-07 0)
(1.21445 5.55016e-07 0)
(1.21445 4.89893e-07 0)
(1.21445 4.27868e-07 0)
(1.21445 3.68323e-07 0)
(1.21445 3.35238e-07 0)
(1.16497 1.17074e-06 0)
(1.16497 1.28334e-06 0)
(1.16497 1.4153e-06 0)
(1.16497 1.49837e-06 0)
(1.16497 1.52614e-06 0)
(1.16497 1.50392e-06 0)
(1.16497 1.43872e-06 0)
(1.16497 1.34697e-06 0)
(1.16497 1.24125e-06 0)
(1.16497 1.12767e-06 0)
(1.16497 1.01078e-06 0)
(1.16497 8.96234e-07 0)
(1.16497 7.88898e-07 0)
(1.16497 6.89191e-07 0)
(1.16497 5.95714e-07 0)
(1.16497 5.08065e-07 0)
(1.16497 4.27429e-07 0)
(1.16497 3.52721e-07 0)
(1.16497 2.86186e-07 0)
(1.16497 2.55101e-07 0)
(1.09075 1.27787e-06 0)
(1.09075 1.40293e-06 0)
(1.09075 1.52975e-06 0)
(1.09075 1.59592e-06 0)
(1.09075 1.6052e-06 0)
(1.09075 1.5656e-06 0)
(1.09075 1.48167e-06 0)
(1.09075 1.36982e-06 0)
(1.09075 1.24575e-06 0)
(1.09075 1.11688e-06 0)
(1.09075 9.87207e-07 0)
(1.09075 8.60518e-07 0)
(1.09075 7.41051e-07 0)
(1.09075 6.30632e-07 0)
(1.09075 5.28141e-07 0)
(1.09075 4.32412e-07 0)
(1.09075 3.43901e-07 0)
(1.09075 2.6239e-07 0)
(1.09075 1.93635e-07 0)
(1.09075 1.70202e-07 0)
(0.991747 1.29677e-06 0)
(0.991747 1.42306e-06 0)
(0.991747 1.53112e-06 0)
(0.991747 1.57114e-06 0)
(0.991748 1.55629e-06 0)
(0.991748 1.498e-06 0)
(0.991748 1.40217e-06 0)
(0.991748 1.28101e-06 0)
(0.991748 1.14868e-06 0)
(0.991748 1.01387e-06 0)
(0.991748 8.81288e-07 0)
(0.991748 7.53882e-07 0)
(0.991749 6.3412e-07 0)
(0.991749 5.23817e-07 0)
(0.991749 4.22273e-07 0)
(0.991749 3.27631e-07 0)
(0.991749 2.39372e-07 0)
(0.991749 1.58835e-07 0)
(0.991749 9.55607e-08 0)
(0.991749 8.40701e-08 0)
(0.867951 1.21737e-06 0)
(0.867951 1.33125e-06 0)
(0.867951 1.40733e-06 0)
(0.867951 1.41568e-06 0)
(0.867951 1.37863e-06 0)
(0.867952 1.30565e-06 0)
(0.867952 1.20466e-06 0)
(0.867952 1.08566e-06 0)
(0.867952 9.578e-07 0)
(0.867953 8.28796e-07 0)
(0.867953 7.04101e-07 0)
(0.867953 5.86846e-07 0)
(0.867953 4.78148e-07 0)
(0.867953 3.78637e-07 0)
(0.867953 2.87402e-07 0)
(0.867954 2.02219e-07 0)
(0.867954 1.21866e-07 0)
(0.867954 4.93538e-08 0)
(0.867954 -1.53009e-09 0)
(0.867954 -1.23821e-09 0)
(0.719328 1.0363e-06 0)
(0.719328 1.12327e-06 0)
(0.719328 1.15751e-06 0)
(0.719329 1.13392e-06 0)
(0.719329 1.08294e-06 0)
(0.719329 1.00914e-06 0)
(0.71933 9.16301e-07 0)
(0.71933 8.13219e-07 0)
(0.71933 7.05084e-07 0)
(0.71933 5.96626e-07 0)
(0.719331 4.9219e-07 0)
(0.719331 3.94918e-07 0)
(0.719331 3.06056e-07 0)
(0.719331 2.25917e-07 0)
(0.719331 1.53176e-07 0)
(0.719331 8.49214e-08 0)
(0.719332 1.88482e-08 0)
(0.719332 -4.20989e-08 0)
(0.719332 -8.03549e-08 0)
(0.719332 -6.90747e-08 0)
(0.545845 7.63795e-07 0)
(0.545845 8.09377e-07 0)
(0.545845 8.00779e-07 0)
(0.545846 7.57702e-07 0)
(0.545846 7.06188e-07 0)
(0.545847 6.45586e-07 0)
(0.545847 5.73818e-07 0)
(0.545847 4.96848e-07 0)
(0.545848 4.18519e-07 0)
(0.545848 3.41014e-07 0)
(0.545848 2.66213e-07 0)
(0.545848 1.96901e-07 0)
(0.545848 1.3601e-07 0)
(0.545848 8.4041e-08 0)
(0.545849 3.70826e-08 0)
(0.545849 -9.28259e-09 0)
(0.545849 -5.58394e-08 0)
(0.545849 -1.00552e-07 0)
(0.545849 -1.23842e-07 0)
(0.545849 -9.90838e-08 0)
(0.347465 4.3223e-07 0)
(0.347465 4.33883e-07 0)
(0.347465 3.99045e-07 0)
(0.347466 3.57647e-07 0)
(0.347466 3.21562e-07 0)
(0.347466 2.84744e-07 0)
(0.347467 2.44161e-07 0)
(0.347467 2.02143e-07 0)
(0.347467 1.60373e-07 0)
(0.347467 1.1962e-07 0)
(0.347467 8.11918e-08 0)
(0.347468 4.71208e-08 0)
(0.347468 1.87209e-08 0)
(0.347468 -4.55336e-09 0)
(0.347468 -2.5588e-08 0)
(0.347468 -4.79229e-08 0)
(0.347468 -7.09919e-08 0)
(0.347468 -9.41634e-08 0)
(0.347468 -1.034e-07 0)
(0.347468 -8.11017e-08 0)
(0.124147 1.27544e-07 0)
(0.124148 1.19433e-07 0)
(0.124148 9.97272e-08 0)
(0.124148 8.29548e-08 0)
(0.124148 7.16649e-08 0)
(0.124148 6.12704e-08 0)
(0.124149 5.06856e-08 0)
(0.124149 4.00416e-08 0)
(0.124149 2.90585e-08 0)
(0.124149 1.76335e-08 0)
(0.124149 6.85923e-09 0)
(0.124149 -1.64748e-09 0)
(0.124149 -7.66983e-09 0)
(0.124149 -1.26349e-08 0)
(0.124149 -1.7822e-08 0)
(0.124149 -2.34972e-08 0)
(0.124149 -2.90944e-08 0)
(0.124149 -3.51833e-08 0)
(0.124149 -3.70294e-08 0)
(0.124149 -2.82928e-08 0)
)
;

boundaryField
{
    movingWall
    {
        type            fixedValue;
        value           uniform (0 0 0);
    }
    bottomWall
    {
        type            noSlip;
    }
    leftSide
    {
        type            zeroGradient;
    }
    rightSide
    {
        type            zeroGradient;
    }
    frontAndBack
    {
        type            empty;
    }
}


// ************************************************************************* //
